 Entering Gaussian System, Link 0=g09
 Input=/home/asarotti.iquir/SCF2/01_Mentol01_OptB_NMR_benzene.gjc
 Output=/home/asarotti.iquir/SCF2/01_Mentol01_OptB_NMR_benzene.log
 Initial command:
 /opt/ohpc/pub/apps/software/Gaussian/09/EM64T.SSE4.2-enabled/g09/l1.exe /local/asarotti.iquir/Gau-3357153.inp -scrdir=/local/asarotti.iquir/
 Entering Link 1 = /opt/ohpc/pub/apps/software/Gaussian/09/EM64T.SSE4.2-enabled/g09/l1.exe PID=   3357154.
  
 Copyright (c) 1988,1990,1992,1993,1995,1998,2003,2009,2011,
            Gaussian, Inc.  All Rights Reserved.
  
 This is part of the Gaussian(R) 09 program.  It is based on
 the Gaussian(R) 03 system (copyright 2003, Gaussian, Inc.),
 the Gaussian(R) 98 system (copyright 1998, Gaussian, Inc.),
 the Gaussian(R) 94 system (copyright 1995, Gaussian, Inc.),
 the Gaussian 92(TM) system (copyright 1992, Gaussian, Inc.),
 the Gaussian 90(TM) system (copyright 1990, Gaussian, Inc.),
 the Gaussian 88(TM) system (copyright 1988, Gaussian, Inc.),
 the Gaussian 86(TM) system (copyright 1986, Carnegie Mellon
 University), and the Gaussian 82(TM) system (copyright 1983,
 Carnegie Mellon University). Gaussian is a federally registered
 trademark of Gaussian, Inc.
  
 This software contains proprietary and confidential information,
 including trade secrets, belonging to Gaussian, Inc.
  
 This software is provided under written license and may be
 used, copied, transmitted, or stored only in accord with that
 written license.
  
 The following legend is applicable only to US Government
 contracts under FAR:
  
                    RESTRICTED RIGHTS LEGEND
  
 Use, reproduction and disclosure by the US Government is
 subject to restrictions as set forth in subparagraphs (a)
 and (c) of the Commercial Computer Software - Restricted
 Rights clause in FAR 52.227-19.
  
 Gaussian, Inc.
 340 Quinnipiac St., Bldg. 40, Wallingford CT 06492
  
  
 ---------------------------------------------------------------
 Warning -- This program may not be used in any manner that
 competes with the business of Gaussian, Inc. or will provide
 assistance to any competitor of Gaussian, Inc.  The licensee
 of this program is prohibited from giving any competitor of
 Gaussian, Inc. access to this program.  By using this program,
 the user acknowledges that Gaussian, Inc. is engaged in the
 business of creating and licensing software in the field of
 computational chemistry and represents and warrants to the
 licensee that it is not a competitor of Gaussian, Inc. and that
 it will not use this program in any manner prohibited above.
 ---------------------------------------------------------------
  

 Cite this work as:
 Gaussian 09, Revision C.01,
 M. J. Frisch, G. W. Trucks, H. B. Schlegel, G. E. Scuseria, 
 M. A. Robb, J. R. Cheeseman, G. Scalmani, V. Barone, B. Mennucci, 
 G. A. Petersson, H. Nakatsuji, M. Caricato, X. Li, H. P. Hratchian, 
 A. F. Izmaylov, J. Bloino, G. Zheng, J. L. Sonnenberg, M. Hada, 
 M. Ehara, K. Toyota, R. Fukuda, J. Hasegawa, M. Ishida, T. Nakajima, 
 Y. Honda, O. Kitao, H. Nakai, T. Vreven, J. A. Montgomery, Jr., 
 J. E. Peralta, F. Ogliaro, M. Bearpark, J. J. Heyd, E. Brothers, 
 K. N. Kudin, V. N. Staroverov, T. Keith, R. Kobayashi, J. Normand, 
 K. Raghavachari, A. Rendell, J. C. Burant, S. S. Iyengar, J. Tomasi, 
 M. Cossi, N. Rega, J. M. Millam, M. Klene, J. E. Knox, J. B. Cross, 
 V. Bakken, C. Adamo, J. Jaramillo, R. Gomperts, R. E. Stratmann, 
 O. Yazyev, A. J. Austin, R. Cammi, C. Pomelli, J. W. Ochterski, 
 R. L. Martin, K. Morokuma, V. G. Zakrzewski, G. A. Voth, 
 P. Salvador, J. J. Dannenberg, S. Dapprich, A. D. Daniels, 
 O. Farkas, J. B. Foresman, J. V. Ortiz, J. Cioslowski, 
 and D. J. Fox, Gaussian, Inc., Wallingford CT, 2010.
 
 ******************************************
 Gaussian 09:  EM64L-G09RevC.01 23-Sep-2011
                19-Sep-2024 
 ******************************************
 %nprocshared=4
 Will use up to    4 processors via shared memory.
 %mem=100mw
 --------------------------------------------------
 # mPW1PW91/6-31+G** nmr scrf=(pcm,solvent=benzene)
 --------------------------------------------------
 1/38=1/1;
 2/12=2,17=6,18=5,40=1/2;
 3/5=1,6=6,7=111,11=2,16=1,25=1,30=1,70=2201,72=12,74=-7/1,2,8,3;
 4//1;
 5/5=2,38=5,53=12/2;
 8/6=1,10=90,11=11/1;
 10/13=100,45=16/2;
 6/7=2,8=2,9=2,10=2,28=1/1;
 99/9=1/99;
 -------
 comment
 -------
 Charge =  0 Multiplicity = 1
 Symbolic Z-Matrix:
 6                     2.24188  -0.26575   0.36509 
 6                     0.1099    1.13947   0.16169 
 6                    -0.04887  -1.36875   0.19653 
 6                    -0.6789   -0.07438  -0.35874 
 6                     1.44534  -1.48043  -0.14023 
 6                     1.6039    1.02618  -0.17283 
 6                     3.72821  -0.3592    0.00221 
 8                    -0.4567    2.31169  -0.43104 
 6                    -2.20982   0.05226  -0.12125 
 6                    -2.62205   0.00638   1.35937 
 6                    -2.99663  -0.99115  -0.93109 
 1                     2.16112  -0.24946   1.46414 
 1                     0.001     1.19033   1.25938 
 1                    -0.58074  -2.24237  -0.19797 
 1                    -0.1692   -1.40141   1.28853 
 1                    -0.53493  -0.0771   -1.45121 
 1                     1.57015  -1.56033  -1.2309 
 1                     1.8592   -2.40314   0.28846 
 1                     1.71266   1.06664  -1.26642 
 1                     2.13553   1.90264   0.22917 
 1                     3.86583  -0.3799   -1.08648 
 1                     4.29019   0.49794   0.39255 
 1                     4.17963  -1.27074   0.41204 
 1                     0.05233   3.07383  -0.11382 
 1                    -2.48657   1.0406   -0.5064 
 1                    -2.41125  -0.96957   1.8133 
 1                    -2.10988   0.77195   1.9528 
 1                    -3.69945   0.18489   1.45817 
 1                    -2.81572  -2.01237  -0.57345 
 1                    -2.72909  -0.9567   -1.99434 
 1                    -4.07494  -0.8071   -0.85369 
 
                          Input orientation:                          
 ---------------------------------------------------------------------
 Center     Atomic      Atomic             Coordinates (Angstroms)
 Number     Number       Type             X           Y           Z
 ---------------------------------------------------------------------
      1          6           0        2.241883   -0.265745    0.365093
      2          6           0        0.109896    1.139470    0.161691
      3          6           0       -0.048867   -1.368753    0.196527
      4          6           0       -0.678902   -0.074380   -0.358735
      5          6           0        1.445339   -1.480427   -0.140225
      6          6           0        1.603897    1.026179   -0.172833
      7          6           0        3.728207   -0.359200    0.002205
      8          8           0       -0.456699    2.311686   -0.431039
      9          6           0       -2.209822    0.052263   -0.121254
     10          6           0       -2.622048    0.006384    1.359366
     11          6           0       -2.996628   -0.991145   -0.931092
     12          1           0        2.161117   -0.249464    1.464139
     13          1           0        0.000996    1.190329    1.259383
     14          1           0       -0.580739   -2.242370   -0.197969
     15          1           0       -0.169198   -1.401405    1.288530
     16          1           0       -0.534925   -0.077103   -1.451208
     17          1           0        1.570149   -1.560329   -1.230895
     18          1           0        1.859196   -2.403135    0.288455
     19          1           0        1.712656    1.066644   -1.266422
     20          1           0        2.135535    1.902640    0.229165
     21          1           0        3.865831   -0.379900   -1.086476
     22          1           0        4.290187    0.497944    0.392546
     23          1           0        4.179630   -1.270738    0.412035
     24          1           0        0.052326    3.073830   -0.113824
     25          1           0       -2.486570    1.040597   -0.506402
     26          1           0       -2.411249   -0.969570    1.813303
     27          1           0       -2.109879    0.771945    1.952802
     28          1           0       -3.699446    0.184886    1.458166
     29          1           0       -2.815722   -2.012372   -0.573452
     30          1           0       -2.729091   -0.956696   -1.994336
     31          1           0       -4.074937   -0.807100   -0.853685
 ---------------------------------------------------------------------
                    Distance matrix (angstroms):
                    1          2          3          4          5
     1  C    0.000000
     2  C    2.561517   0.000000
     3  C    2.548054   2.513484   0.000000
     4  C    3.015217   1.538336   1.542939   0.000000
     5  C    1.537947   2.956082   1.535749   2.556778   0.000000
     6  C    1.538005   1.535181   2.933216   2.541055   2.511828
     7  C    1.532834   3.919646   3.914492   4.431028   2.547336
     8  O    3.815668   1.430542   3.755769   2.397481   4.252346
     9  C    4.489470   2.577434   2.605762   1.554398   3.963546
    10  C    4.971967   3.190898   3.140773   2.595036   4.582905
    11  C    5.445025   3.922268   3.178586   2.557324   4.538275
    12  H    1.102130   2.798753   2.782746   3.379235   2.145132
    13  H    2.818063   1.104252   2.771471   2.163344   3.343347
    14  H    3.491601   3.470328   1.096231   2.176158   2.165383
    15  H    2.820598   2.793511   1.099098   2.175839   2.157386
    16  H    3.323432   2.120681   2.149335   1.101923   2.758521
    17  H    2.162025   3.370541   2.166898   2.833185   1.100692
    18  H    2.172731   3.952995   2.172349   3.504839   1.098378
    19  H    2.171908   2.147941   3.342804   2.800961   2.797740
    20  H    2.175242   2.165686   3.933788   3.489311   3.472458
    21  H    2.181122   4.239511   4.236601   4.612759   2.822292
    22  H    2.186212   4.235526   4.727618   5.058045   3.505846
    23  H    2.183364   4.736508   4.235120   5.062676   2.797375
    24  H    4.021975   1.954731   4.454560   3.241281   4.762608
    25  H    4.982399   2.682864   3.498782   2.129000   4.685035
    26  H    4.923852   3.678593   2.890356   2.918928   4.353219
    27  H    4.747152   2.875857   3.451791   2.847308   4.700374
    28  H    6.057827   4.135597   4.163202   3.534407   5.638877
    29  H    5.432397   4.362773   2.943229   2.892735   4.315935
    30  H    5.545710   4.135482   3.486154   2.767119   4.597596
    31  H    6.456059   4.725775   4.198528   3.509260   5.606767
                    6          7          8          9         10
     6  C    0.000000
     7  C    2.542166   0.000000
     8  O    2.442387   4.983450   0.000000
     9  C    3.936448   5.953548   2.876526   0.000000
    10  C    4.609363   6.503943   3.634378   1.537619   0.000000
    11  C    5.080294   6.818636   4.196425   1.537401   2.526177
    12  H    2.148822   2.145941   4.123609   4.659358   4.791148
    13  H    2.155801   4.227723   2.079532   2.844129   2.879598
    14  H    3.931498   4.706741   4.561703   2.815162   3.413082
    15  H    3.342546   4.234453   4.102026   2.874854   2.829021
    16  H    2.725075   4.512902   2.598688   2.142614   3.501768
    17  H    2.794755   2.760518   4.443015   4.256752   5.170934
    18  H    3.469605   2.784387   5.301941   4.770089   5.199440
    19  H    1.099729   2.775769   2.637062   4.210251   5.177700
    20  H    1.101102   2.775614   2.706079   4.735907   5.244782
    21  H    2.815697   1.097541   5.134053   6.167007   6.944345
    22  H    2.795503   1.096760   5.147900   6.535498   6.996811
    23  H    3.500328   1.096652   5.919466   6.546742   6.985077
    24  H    2.569772   5.031030   0.969843   3.774551   4.328024
    25  H    4.104071   6.390741   2.396189   1.096236   2.137532
    26  H    4.903993   6.430050   4.429896   2.197095   1.096805
    27  H    4.286618   6.258400   3.284281   2.197644   1.095704
    28  H    5.611896   7.588536   4.313674   2.175117   1.096545
    29  H    5.378319   6.774021   4.927753   2.198708   2.801548
    30  H    5.101417   6.785269   4.276679   2.189994   3.490888
    31  H    6.006132   7.862711   4.795529   2.180278   2.769519
                   11         12         13         14         15
    11  C    0.000000
    12  H    5.734942   0.000000
    13  H    4.306130   2.604045   0.000000
    14  H    2.817721   3.775189   3.774349   0.000000
    15  H    3.617927   2.605413   2.597480   1.756778   0.000000
    16  H    2.676934   3.974619   3.039885   2.502217   3.064914
    17  H    4.611866   3.054639   4.028628   2.481619   3.065630
    18  H    5.201926   2.472183   4.160360   2.493138   2.473458
    19  H    5.150175   3.064184   3.053648   4.165432   4.020002
    20  H    6.004938   2.481404   2.474872   4.974103   4.165425
    21  H    6.891379   3.070619   4.785982   4.902063   4.792242
    22  H    7.554275   2.497973   4.430346   5.619960   4.929141
    23  H    7.306219   2.494858   4.922990   4.896661   4.438200
    24  H    5.146656   4.240430   2.331503   5.354422   4.695040
    25  H    2.137404   5.210401   3.054243   3.808569   3.815150
    26  H    2.806214   4.641875   3.284953   3.002666   2.342789
    27  H    3.494518   4.418538   2.260900   4.006268   2.988470
    28  H    2.754189   5.876640   3.839753   4.284937   3.873983
    29  H    1.097059   5.659377   4.642249   2.277945   3.293076
    30  H    1.096928   6.031199   4.759178   3.081446   4.186649
    31  H    1.096638   6.676199   5.006796   3.833977   4.494116
                   16         17         18         19         20
    16  H    0.000000
    17  H    2.584537   0.000000
    18  H    3.764129   1.761333   0.000000
    19  H    2.528621   2.631075   3.805060   0.000000
    20  H    3.724835   3.800472   4.315041   1.764794   0.000000
    21  H    4.426214   2.585426   3.163937   2.600199   3.151956
    22  H    5.197289   3.777652   3.786398   3.117573   2.577283
    23  H    5.208020   3.097172   2.584958   3.790321   3.779166
    24  H    3.473016   5.002706   5.781328   2.848504   2.414350
    25  H    2.439432   4.873056   5.601497   4.267529   4.758995
    26  H    3.869641   5.046550   4.755730   5.535112   5.606454
    27  H    3.845601   5.396113   5.348340   5.006199   4.719421
    28  H    4.306656   6.168100   6.242161   6.123049   6.205492
    29  H    3.117332   4.457851   4.769742   5.519670   6.362897
    30  H    2.425497   4.408024   5.325007   4.934864   6.065010
    31  H    3.663552   5.707595   6.250260   6.097336   6.861867
                   21         22         23         24         25
    21  H    0.000000
    22  H    1.771495   0.000000
    23  H    1.771326   1.772241   0.000000
    24  H    5.236136   4.985084   6.015516   0.000000
    25  H    6.535082   6.857625   7.115056   3.276301   0.000000
    26  H    6.939608   7.005811   6.744920   5.111957   3.070420
    27  H    6.802431   6.593203   6.790025   3.774222   2.502350
    28  H    8.001725   8.066461   8.080413   4.989283   2.462283
    29  H    6.897196   7.597946   7.103250   5.857167   3.071393
    30  H    6.682058   7.555359   7.322545   5.245736   2.502388
    31  H    7.955658   8.557542   8.363904   5.713433   2.461199
                   26         27         28         29         30
    26  H    0.000000
    27  H    1.772895   0.000000
    28  H    1.765883   1.765227   0.000000
    29  H    2.635836   3.825257   3.120318   0.000000
    30  H    3.820904   4.353335   3.763585   1.772249   0.000000
    31  H    3.147551   3.772427   2.543558   1.765456   1.770527
                   31
    31  H    0.000000
 Stoichiometry    C10H20O
 Framework group  C1[X(C10H20O)]
 Deg. of freedom    87
 Full point group                 C1      NOp   1
 Largest Abelian subgroup         C1      NOp   1
 Largest concise Abelian subgroup C1      NOp   1
                         Standard orientation:                         
 ---------------------------------------------------------------------
 Center     Atomic      Atomic             Coordinates (Angstroms)
 Number     Number       Type             X           Y           Z
 ---------------------------------------------------------------------
      1          6           0        2.241883   -0.265745    0.365093
      2          6           0        0.109896    1.139470    0.161691
      3          6           0       -0.048867   -1.368753    0.196527
      4          6           0       -0.678902   -0.074380   -0.358735
      5          6           0        1.445339   -1.480427   -0.140225
      6          6           0        1.603897    1.026179   -0.172833
      7          6           0        3.728207   -0.359200    0.002205
      8          8           0       -0.456699    2.311686   -0.431039
      9          6           0       -2.209822    0.052263   -0.121254
     10          6           0       -2.622048    0.006384    1.359366
     11          6           0       -2.996628   -0.991145   -0.931092
     12          1           0        2.161117   -0.249464    1.464139
     13          1           0        0.000996    1.190329    1.259383
     14          1           0       -0.580739   -2.242370   -0.197969
     15          1           0       -0.169198   -1.401405    1.288530
     16          1           0       -0.534925   -0.077103   -1.451208
     17          1           0        1.570149   -1.560329   -1.230895
     18          1           0        1.859196   -2.403135    0.288455
     19          1           0        1.712656    1.066644   -1.266422
     20          1           0        2.135535    1.902640    0.229165
     21          1           0        3.865831   -0.379900   -1.086476
     22          1           0        4.290187    0.497944    0.392546
     23          1           0        4.179630   -1.270738    0.412035
     24          1           0        0.052326    3.073830   -0.113824
     25          1           0       -2.486570    1.040597   -0.506402
     26          1           0       -2.411249   -0.969570    1.813303
     27          1           0       -2.109879    0.771945    1.952802
     28          1           0       -3.699446    0.184886    1.458166
     29          1           0       -2.815722   -2.012372   -0.573452
     30          1           0       -2.729091   -0.956696   -1.994336
     31          1           0       -4.074937   -0.807100   -0.853685
 ---------------------------------------------------------------------
 Rotational constants (GHZ):      1.7711948      0.6821159      0.5666713
 Standard basis: 6-31+G(d,p) (6D, 7F)
 There are   309 symmetry adapted basis functions of A   symmetry.
 Integral buffers will be    131072 words long.
 Raffenetti 2 integral format.
 Two-electron integral symmetry is turned on.
   309 basis functions,   492 primitive gaussians,   309 cartesian basis functions
    44 alpha electrons       44 beta electrons
       nuclear repulsion energy       686.8021913289 Hartrees.
 NAtoms=   31 NActive=   31 NUniq=   31 SFac= 1.00D+00 NAtFMM=   60 NAOKFM=F Big=F
 ------------------------------------------------------------------------------
 Polarizable Continuum Model (PCM)
 =================================
 Model                : PCM.
 Atomic radii         : UFF (Universal Force Field).
 Polarization charges : Total charges.
 Charge compensation  : None.
 Solution method      : Matrix inversion.
 Cavity type          : Scaled VdW (van der Waals Surface) (Alpha=1.100).
 Cavity algorithm     : GePol (No added spheres)
                        Default sphere list used, NSphG=   31.
                        Lebedev-Laikov grids with approx.  5.0 points / Ang**2.
                        Smoothing algorithm: Karplus/York (Gamma=1.0000).
                        Polarization charges: spherical gaussians, with
                                              point-specific exponents (IZeta= 3).
                        Self-potential: point-specific (ISelfS= 7).
                        Self-field    : sphere-specific E.n sum rule (ISelfD= 2).
 Solvent              : Benzene, Eps=   2.270600 Eps(inf)=   2.253301
 ------------------------------------------------------------------------------
 One-electron integrals computed using PRISM.
 NBasis=   309 RedAO= T  NBF=   309
 NBsUse=   309 1.00D-06 NBFU=   309
 Harris functional with IExCor=  908 diagonalized for initial guess.
 ExpMin= 4.38D-02 ExpMax= 5.48D+03 ExpMxC= 8.25D+02 IAcc=2 IRadAn=         4 AccDes= 0.00D+00
 HarFok:  IExCor=  908 AccDes= 0.00D+00 IRadAn=         4 IDoV= 1
 ScaDFX=  1.000000  1.000000  1.000000  1.000000
 FoFCou: FMM=F IPFlag=           0 FMFlag=      100000 FMFlg1=           0
         NFxFlg=           0 DoJE=T BraDBF=F KetDBF=T FulRan=T
         Omega=  0.000000  0.000000  1.000000  0.000000  0.000000 ICntrl=     500 IOpCl=  0
         NMat0=    1 NMatS0=    1 NMatT0=    0 NMatD0=    1 NMtDS0=    0 NMtDT0=    0
         I1Cent=           4 NGrid=           0.
 Petite list used in FoFCou.
 Initial guess orbital symmetries:
       Occupied  (A) (A) (A) (A) (A) (A) (A) (A) (A) (A) (A) (A)
                 (A) (A) (A) (A) (A) (A) (A) (A) (A) (A) (A) (A)
                 (A) (A) (A) (A) (A) (A) (A) (A) (A) (A) (A) (A)
                 (A) (A) (A) (A) (A) (A) (A) (A)
       Virtual   (A) (A) (A) (A) (A) (A) (A) (A) (A) (A) (A) (A)
                 (A) (A) (A) (A) (A) (A) (A) (A) (A) (A) (A) (A)
                 (A) (A) (A) (A) (A) (A) (A) (A) (A) (A) (A) (A)
                 (A) (A) (A) (A) (A) (A) (A) (A) (A) (A) (A) (A)
                 (A) (A) (A) (A) (A) (A) (A) (A) (A) (A) (A) (A)
                 (A) (A) (A) (A) (A) (A) (A) (A) (A) (A) (A) (A)
                 (A) (A) (A) (A) (A) (A) (A) (A) (A) (A) (A) (A)
                 (A) (A) (A) (A) (A) (A) (A) (A) (A) (A) (A) (A)
                 (A) (A) (A) (A) (A) (A) (A) (A) (A) (A) (A) (A)
                 (A) (A) (A) (A) (A) (A) (A) (A) (A) (A) (A) (A)
                 (A) (A) (A) (A) (A) (A) (A) (A) (A) (A) (A) (A)
                 (A) (A) (A) (A) (A) (A) (A) (A) (A) (A) (A) (A)
                 (A) (A) (A) (A) (A) (A) (A) (A) (A) (A) (A) (A)
                 (A) (A) (A) (A) (A) (A) (A) (A) (A) (A) (A) (A)
                 (A) (A) (A) (A) (A) (A) (A) (A) (A) (A) (A) (A)
                 (A) (A) (A) (A) (A) (A) (A) (A) (A) (A) (A) (A)
                 (A) (A) (A) (A) (A) (A) (A) (A) (A) (A) (A) (A)
                 (A) (A) (A) (A) (A) (A) (A) (A) (A) (A) (A) (A)
                 (A) (A) (A) (A) (A) (A) (A) (A) (A) (A) (A) (A)
                 (A) (A) (A) (A) (A) (A) (A) (A) (A) (A) (A) (A)
                 (A) (A) (A) (A) (A) (A) (A) (A) (A) (A) (A) (A)
                 (A) (A) (A) (A) (A) (A) (A) (A) (A) (A) (A) (A)
                 (A)
 The electronic state of the initial guess is 1-A.
 Requested convergence on RMS density matrix=1.00D-08 within 128 cycles.
 Requested convergence on MAX density matrix=1.00D-06.
 Requested convergence on             energy=1.00D-06.
 No special actions if energy rises.
 Error on total polarization charges =  0.00937
 SCF Done:  E(RmPW1PW91) =  -468.285870851     A.U. after   12 cycles
             Convg  =    0.7800D-08             -V/T =  2.0099
 Range of M.O.s used for correlation:     1   309
 NBasis=   309 NAE=    44 NBE=    44 NFC=     0 NFV=     0
 NROrb=    309 NOA=    44 NOB=    44 NVA=   265 NVB=   265

 **** Warning!!: The largest alpha MO coefficient is  0.76535877D+02

 NEqPCM:  Using equilibrium solvation (IEInf=0, Eps=   2.2706, EpsInf=   2.2533)
          Differentiating once with respect to magnetic field using GIAOs.
          Electric field/nuclear overlap derivatives assumed to be zero.
 FoFCou: FMM=F IPFlag=           0 FMFlag=    10101102 FMFlg1=           0
         NFxFlg=    40000000 DoJE=F BraDBF=F KetDBF=T FulRan=T
         Omega=  0.000000  0.000000  1.000000  0.000000  0.000000 ICntrl=    6100 IOpCl=  0
         NMat0=    1 NMatS0=    1 NMatT0=    0 NMatD0=    1 NMtDS0=    0 NMtDT0=    0
         I1Cent=           7 NGrid=        1933.
 Symmetry not used in FoFCou.
          There are     3 degrees of freedom in the 1st order CPHF.  IDoFFX=0.
      3 vectors produced by pass  0 Test12= 3.89D-13 3.33D-08 XBig12= 3.46D+01 1.32D+00.
 AX will form     3 AO Fock derivatives at one time.
      3 vectors produced by pass  1 Test12= 3.89D-13 3.33D-08 XBig12= 8.12D-02 5.95D-02.
      3 vectors produced by pass  2 Test12= 3.89D-13 3.33D-08 XBig12= 2.27D-04 4.59D-03.
      3 vectors produced by pass  3 Test12= 3.89D-13 3.33D-08 XBig12= 8.53D-07 1.93D-04.
      3 vectors produced by pass  4 Test12= 3.89D-13 3.33D-08 XBig12= 2.35D-09 8.89D-06.
      3 vectors produced by pass  5 Test12= 3.89D-13 3.33D-08 XBig12= 5.32D-12 4.26D-07.
 Inverted reduced A of dimension    18 with in-core refinement.
 Calculating GIAO nuclear magnetic shielding tensors.
 SCF GIAO Magnetic shielding tensor (ppm):
      1  C    Isotropic =   162.2500   Anisotropy =    11.5158
   XX=   166.6146   YX=     2.7780   ZX=    -0.6478
   XY=     6.7836   YY=   163.0270   ZY=     1.7617
   XZ=    -2.1282   YZ=     2.4074   ZZ=   157.1085
   Eigenvalues:   155.5887   161.2341   169.9272
      2  C    Isotropic =   124.1468   Anisotropy =    51.4829
   XX=   116.6044   YX=   -11.4250   ZX=     6.1817
   XY=   -13.5330   YY=   142.8664   ZY=   -18.2129
   XZ=     5.5204   YZ=   -24.3826   ZZ=   112.9696
   Eigenvalues:   101.8691   112.1026   158.4687
      3  C    Isotropic =   171.5133   Anisotropy =    12.5745
   XX=   179.3399   YX=     0.1367   ZX=    -2.4985
   XY=    -1.4347   YY=   169.3270   ZY=    -2.4024
   XZ=    -2.9896   YZ=     0.3940   ZZ=   165.8731
   Eigenvalues:   165.0465   169.5971   179.8963
      4  C    Isotropic =   145.8071   Anisotropy =    13.0766
   XX=   150.1319   YX=    11.7730   ZX=    -2.7544
   XY=    -0.5888   YY=   140.0296   ZY=     0.8396
   XZ=    -6.6980   YZ=     3.1724   ZZ=   147.2597
   Eigenvalues:   136.1823   146.7141   154.5248
      5  C    Isotropic =   159.9528   Anisotropy =    20.1072
   XX=   167.0444   YX=     7.1199   ZX=    -1.9976
   XY=    11.5392   YY=   158.6925   ZY=     4.6913
   XZ=     3.1496   YZ=     1.8146   ZZ=   154.1215
   Eigenvalues:   150.7747   155.7261   173.3576
      6  C    Isotropic =   149.2490   Anisotropy =    37.2437
   XX=   164.0958   YX=   -18.1411   ZX=    -3.7916
   XY=   -13.6830   YY=   148.3545   ZY=   -10.1315
   XZ=    -1.5816   YZ=    -5.8298   ZZ=   135.2966
   Eigenvalues:   128.4865   145.1822   174.0781
      7  C    Isotropic =   173.0381   Anisotropy =    38.0900
   XX=   197.5170   YX=    -1.9850   ZX=    -2.6093
   XY=    -2.3147   YY=   163.5223   ZY=     0.2238
   XZ=    -8.5539   YZ=     0.9366   ZZ=   158.0752
   Eigenvalues:   157.2878   163.3952   198.4315
      8  O    Isotropic =   275.3386   Anisotropy =    56.0321
   XX=   266.6528   YX=    19.9001   ZX=     4.9936
   XY=     2.9083   YY=   309.7788   ZY=    -2.5663
   XZ=    16.2466   YZ=     1.9717   ZZ=   249.5841
   Eigenvalues:   244.0585   269.2639   312.6933
      9  C    Isotropic =   168.0399   Anisotropy =    11.0496
   XX=   174.4581   YX=    -0.9766   ZX=    -0.7099
   XY=     1.7155   YY=   159.2013   ZY=     4.8323
   XZ=    -2.9026   YZ=     6.4087   ZZ=   170.4603
   Eigenvalues:   156.8149   171.8984   175.4063
     10  C    Isotropic =   180.3921   Anisotropy =    25.4939
   XX=   172.9040   YX=    -0.1275   ZX=    -6.2725
   XY=     0.4901   YY=   171.8881   ZY=     0.7288
   XZ=    -2.0872   YZ=     4.7740   ZZ=   196.3841
   Eigenvalues:   171.1893   172.5989   197.3880
     11  C    Isotropic =   174.1185   Anisotropy =    36.1910
   XX=   172.1932   YX=    12.4370   ZX=     8.0725
   XY=    14.5817   YY=   167.6204   ZY=    17.6371
   XZ=     3.6306   YZ=    13.1667   ZZ=   182.5418
   Eigenvalues:   153.3482   170.7613   198.2458
     12  H    Isotropic =    30.1106   Anisotropy =     6.3852
   XX=    30.2172   YX=    -0.2116   ZX=     1.3408
   XY=    -0.7216   YY=    26.1359   ZY=    -0.2023
   XZ=     1.1737   YZ=    -0.0203   ZZ=    33.9788
   Eigenvalues:    26.0831    29.8814    34.3674
     13  H    Isotropic =    27.9926   Anisotropy =     2.1213
   XX=    27.7780   YX=    -0.7997   ZX=    -0.2481
   XY=    -0.6304   YY=    27.1736   ZY=    -0.3018
   XZ=    -0.8865   YZ=     0.9893   ZZ=    29.0261
   Eigenvalues:    26.6992    27.8718    29.4068
     14  H    Isotropic =    29.9466   Anisotropy =     8.7660
   XX=    32.7476   YX=     2.0112   ZX=     1.6077
   XY=     2.1920   YY=    33.6357   ZY=     1.9606
   XZ=     1.2136   YZ=     1.8239   ZZ=    23.4566
   Eigenvalues:    23.0046    31.0447    35.7906
     15  H    Isotropic =    30.5293   Anisotropy =     6.7267
   XX=    31.3565   YX=    -1.6070   ZX=    -2.2662
   XY=    -0.6552   YY=    27.5819   ZY=    -3.6138
   XZ=    -1.8811   YZ=    -3.4711   ZZ=    32.6496
   Eigenvalues:    25.1281    31.4461    35.0137
     16  H    Isotropic =    30.3307   Anisotropy =     3.3140
   XX=    31.6272   YX=     0.2582   ZX=    -0.1423
   XY=     0.8841   YY=    26.8538   ZY=     0.0669
   XZ=    -0.1644   YZ=    -0.1336   ZZ=    32.5112
   Eigenvalues:    26.7863    31.6657    32.5401
     17  H    Isotropic =    30.6671   Anisotropy =     6.9745
   XX=    30.9052   YX=    -0.3466   ZX=    -1.9212
   XY=    -0.7556   YY=    28.6838   ZY=     4.0669
   XZ=    -1.3081   YZ=     3.3236   ZZ=    32.4123
   Eigenvalues:    26.3753    30.3092    35.3168
     18  H    Isotropic =    30.0172   Anisotropy =     8.9890
   XX=    30.6448   YX=    -2.3153   ZX=     0.8063
   XY=    -2.4534   YY=    34.3529   ZY=    -2.1975
   XZ=     0.4684   YZ=    -2.3348   ZZ=    25.0539
   Eigenvalues:    24.5298    29.5120    36.0099
     19  H    Isotropic =    30.5504   Anisotropy =     4.8664
   XX=    30.8874   YX=     0.1798   ZX=    -2.0791
   XY=    -0.1431   YY=    29.2391   ZY=    -2.8069
   XZ=    -1.2317   YZ=    -2.0903   ZZ=    31.5247
   Eigenvalues:    27.4338    30.4228    33.7947
     20  H    Isotropic =    29.9736   Anisotropy =     6.7492
   XX=    31.1696   YX=     1.8158   ZX=     1.1605
   XY=     1.5786   YY=    33.0368   ZY=     1.8374
   XZ=     1.1195   YZ=     1.3361   ZZ=    25.7143
   Eigenvalues:    25.2760    30.1717    34.4730
     21  H    Isotropic =    30.9348   Anisotropy =     8.3631
   XX=    32.1368   YX=    -0.4201   ZX=    -4.1490
   XY=    -0.3610   YY=    27.2427   ZY=     0.3293
   XZ=    -3.1493   YZ=     0.2396   ZZ=    33.4250
   Eigenvalues:    27.2118    29.0825    36.5102
     22  H    Isotropic =    30.6294   Anisotropy =    10.5516
   XX=    34.8865   YX=     4.5048   ZX=     2.2128
   XY=     3.1937   YY=    30.1775   ZY=     2.1560
   XZ=     1.6593   YZ=     1.5134   ZZ=    26.8240
   Eigenvalues:    26.0060    28.2184    37.6637
     23  H    Isotropic =    30.5683   Anisotropy =    10.5551
   XX=    33.8075   YX=    -4.8920   ZX=     2.0260
   XY=    -3.6795   YY=    31.0664   ZY=    -2.4533
   XZ=     1.4645   YZ=    -1.8463   ZZ=    26.8309
   Eigenvalues:    25.9305    28.1693    37.6050
     24  H    Isotropic =    30.9128   Anisotropy =    18.2442
   XX=    27.5133   YX=     4.1265   ZX=     3.5591
   XY=     4.9782   YY=    41.1331   ZY=     2.9677
   XZ=     2.9408   YZ=     1.8184   ZZ=    24.0919
   Eigenvalues:    22.1239    27.5388    43.0756
     25  H    Isotropic =    28.9988   Anisotropy =     6.8178
   XX=    29.5044   YX=    -0.6909   ZX=     1.3600
   XY=    -0.1934   YY=    32.3553   ZY=    -3.0223
   XZ=     1.4842   YZ=    -2.6716   ZZ=    25.1367
   Eigenvalues:    23.8893    29.5631    33.5440
     26  H    Isotropic =    31.0370   Anisotropy =     7.5047
   XX=    29.5991   YX=    -0.6643   ZX=    -1.7745
   XY=    -0.7625   YY=    31.3337   ZY=    -3.7076
   XZ=    -1.5188   YZ=    -4.6378   ZZ=    32.1782
   Eigenvalues:    26.6414    30.4294    36.0401
     27  H    Isotropic =    30.5327   Anisotropy =     8.9362
   XX=    29.2006   YX=     1.8941   ZX=    -1.1456
   XY=     2.3399   YY=    29.1731   ZY=     4.3953
   XZ=    -0.2660   YZ=     5.2733   ZZ=    33.2243
   Eigenvalues:    24.8771    30.2308    36.4902
     28  H    Isotropic =    30.8839   Anisotropy =    10.9763
   XX=    36.1611   YX=    -1.8750   ZX=    -3.1587
   XY=    -1.7421   YY=    26.7342   ZY=     1.2974
   XZ=    -4.1060   YZ=     1.0981   ZZ=    29.7563
   Eigenvalues:    26.2711    28.1791    38.2014
     29  H    Isotropic =    30.6378   Anisotropy =     7.1764
   XX=    30.1370   YX=     1.8799   ZX=     1.3000
   XY=     1.1775   YY=    34.9370   ZY=    -0.1171
   XZ=     1.3453   YZ=     0.5418   ZZ=    26.8395
   Eigenvalues:    26.3628    30.1286    35.4221
     30  H    Isotropic =    30.8110   Anisotropy =    10.1557
   XX=    28.7650   YX=     1.4606   ZX=     2.0000
   XY=     0.9513   YY=    26.8076   ZY=     2.6410
   XZ=     0.9445   YZ=     1.4464   ZZ=    36.8605
   Eigenvalues:    26.0751    28.7765    37.5815
     31  H    Isotropic =    30.6126   Anisotropy =    10.7593
   XX=    37.2647   YX=     0.3326   ZX=     1.8640
   XY=     1.5077   YY=    26.8276   ZY=     1.0020
   XZ=     2.1285   YZ=     1.3854   ZZ=    27.7456
   Eigenvalues:    25.9931    28.0593    37.7855
 End of Minotr Frequency-dependent properties file   721 does not exist.
 End of Minotr Frequency-dependent properties file   722 does not exist.

 **********************************************************************

            Population analysis using the SCF density.

 **********************************************************************

 Orbital symmetries:
       Occupied  (A) (A) (A) (A) (A) (A) (A) (A) (A) (A) (A) (A)
                 (A) (A) (A) (A) (A) (A) (A) (A) (A) (A) (A) (A)
                 (A) (A) (A) (A) (A) (A) (A) (A) (A) (A) (A) (A)
                 (A) (A) (A) (A) (A) (A) (A) (A)
       Virtual   (A) (A) (A) (A) (A) (A) (A) (A) (A) (A) (A) (A)
                 (A) (A) (A) (A) (A) (A) (A) (A) (A) (A) (A) (A)
                 (A) (A) (A) (A) (A) (A) (A) (A) (A) (A) (A) (A)
                 (A) (A) (A) (A) (A) (A) (A) (A) (A) (A) (A) (A)
                 (A) (A) (A) (A) (A) (A) (A) (A) (A) (A) (A) (A)
                 (A) (A) (A) (A) (A) (A) (A) (A) (A) (A) (A) (A)
                 (A) (A) (A) (A) (A) (A) (A) (A) (A) (A) (A) (A)
                 (A) (A) (A) (A) (A) (A) (A) (A) (A) (A) (A) (A)
                 (A) (A) (A) (A) (A) (A) (A) (A) (A) (A) (A) (A)
                 (A) (A) (A) (A) (A) (A) (A) (A) (A) (A) (A) (A)
                 (A) (A) (A) (A) (A) (A) (A) (A) (A) (A) (A) (A)
                 (A) (A) (A) (A) (A) (A) (A) (A) (A) (A) (A) (A)
                 (A) (A) (A) (A) (A) (A) (A) (A) (A) (A) (A) (A)
                 (A) (A) (A) (A) (A) (A) (A) (A) (A) (A) (A) (A)
                 (A) (A) (A) (A) (A) (A) (A) (A) (A) (A) (A) (A)
                 (A) (A) (A) (A) (A) (A) (A) (A) (A) (A) (A) (A)
                 (A) (A) (A) (A) (A) (A) (A) (A) (A) (A) (A) (A)
                 (A) (A) (A) (A) (A) (A) (A) (A) (A) (A) (A) (A)
                 (A) (A) (A) (A) (A) (A) (A) (A) (A) (A) (A) (A)
                 (A) (A) (A) (A) (A) (A) (A) (A) (A) (A) (A) (A)
                 (A) (A) (A) (A) (A) (A) (A) (A) (A) (A) (A) (A)
                 (A) (A) (A) (A) (A) (A) (A) (A) (A) (A) (A) (A)
                 (A)
 The electronic state is 1-A.
 Alpha  occ. eigenvalues --  -19.24570 -10.29412 -10.25258 -10.24499 -10.24374
 Alpha  occ. eigenvalues --  -10.24142 -10.24031 -10.23996 -10.23525 -10.22876
 Alpha  occ. eigenvalues --  -10.22873  -1.05111  -0.86145  -0.82063  -0.76552
 Alpha  occ. eigenvalues --   -0.75414  -0.69828  -0.69593  -0.63508  -0.61644
 Alpha  occ. eigenvalues --   -0.57842  -0.55684  -0.52270  -0.48357  -0.47457
 Alpha  occ. eigenvalues --   -0.46259  -0.45390  -0.43614  -0.42088  -0.41057
 Alpha  occ. eigenvalues --   -0.40194  -0.39801  -0.39237  -0.38451  -0.37498
 Alpha  occ. eigenvalues --   -0.35517  -0.35317  -0.34938  -0.33443  -0.33021
 Alpha  occ. eigenvalues --   -0.32174  -0.31111  -0.30037  -0.28000
 Alpha virt. eigenvalues --    0.00682   0.01606   0.01862   0.02495   0.03644
 Alpha virt. eigenvalues --    0.04383   0.04661   0.05087   0.05742   0.06672
 Alpha virt. eigenvalues --    0.07124   0.07618   0.07852   0.08776   0.09202
 Alpha virt. eigenvalues --    0.09733   0.10098   0.10456   0.10878   0.11304
 Alpha virt. eigenvalues --    0.12200   0.13144   0.13776   0.14637   0.15020
 Alpha virt. eigenvalues --    0.15159   0.15650   0.16084   0.16564   0.17491
 Alpha virt. eigenvalues --    0.18316   0.19017   0.19205   0.19436   0.19514
 Alpha virt. eigenvalues --    0.20291   0.20731   0.21240   0.21947   0.22285
 Alpha virt. eigenvalues --    0.22883   0.23278   0.24214   0.24423   0.24724
 Alpha virt. eigenvalues --    0.25031   0.25427   0.26456   0.27202   0.27631
 Alpha virt. eigenvalues --    0.27782   0.28230   0.29161   0.30089   0.30290
 Alpha virt. eigenvalues --    0.30911   0.31534   0.31897   0.32287   0.33331
 Alpha virt. eigenvalues --    0.34428   0.35328   0.36082   0.36544   0.37396
 Alpha virt. eigenvalues --    0.37689   0.38481   0.39745   0.40045   0.40764
 Alpha virt. eigenvalues --    0.41924   0.44170   0.45479   0.50289   0.51494
 Alpha virt. eigenvalues --    0.62314   0.62894   0.65631   0.66142   0.67410
 Alpha virt. eigenvalues --    0.68580   0.69088   0.70635   0.71276   0.72706
 Alpha virt. eigenvalues --    0.73260   0.74340   0.75245   0.75666   0.76517
 Alpha virt. eigenvalues --    0.78734   0.79698   0.80601   0.82994   0.84464
 Alpha virt. eigenvalues --    0.86074   0.86981   0.88178   0.89154   0.90597
 Alpha virt. eigenvalues --    0.95128   0.96890   0.98516   0.99075   0.99653
 Alpha virt. eigenvalues --    1.01210   1.02379   1.02534   1.03854   1.05225
 Alpha virt. eigenvalues --    1.06540   1.07094   1.08010   1.09744   1.10733
 Alpha virt. eigenvalues --    1.13430   1.14155   1.15364   1.15928   1.16660
 Alpha virt. eigenvalues --    1.17329   1.19127   1.19782   1.21229   1.21886
 Alpha virt. eigenvalues --    1.23424   1.26568   1.27455   1.29120   1.34162
 Alpha virt. eigenvalues --    1.36875   1.37688   1.40028   1.42050   1.46568
 Alpha virt. eigenvalues --    1.47107   1.49037   1.52623   1.53413   1.57270
 Alpha virt. eigenvalues --    1.59050   1.60106   1.61544   1.65538   1.66472
 Alpha virt. eigenvalues --    1.69385   1.73186   1.76294   1.79058   1.80449
 Alpha virt. eigenvalues --    1.81757   1.83491   1.85905   1.86759   1.87702
 Alpha virt. eigenvalues --    1.90121   1.91247   1.92298   1.93736   1.94539
 Alpha virt. eigenvalues --    1.95925   1.97302   1.97961   2.01336   2.03296
 Alpha virt. eigenvalues --    2.04916   2.05702   2.05943   2.06539   2.07945
 Alpha virt. eigenvalues --    2.08479   2.09552   2.12329   2.13130   2.14636
 Alpha virt. eigenvalues --    2.15364   2.16531   2.17391   2.18535   2.19843
 Alpha virt. eigenvalues --    2.20104   2.22514   2.23257   2.25296   2.28942
 Alpha virt. eigenvalues --    2.33151   2.34066   2.34944   2.36682   2.36914
 Alpha virt. eigenvalues --    2.37961   2.39195   2.40007   2.41715   2.45267
 Alpha virt. eigenvalues --    2.46808   2.49487   2.52181   2.54613   2.56678
 Alpha virt. eigenvalues --    2.59140   2.61518   2.63946   2.64788   2.67862
 Alpha virt. eigenvalues --    2.68601   2.68881   2.70115   2.72844   2.73601
 Alpha virt. eigenvalues --    2.74318   2.75455   2.76335   2.77429   2.78673
 Alpha virt. eigenvalues --    2.79278   2.82533   2.83444   2.86530   2.87092
 Alpha virt. eigenvalues --    2.88649   2.89125   2.90473   2.91012   2.91849
 Alpha virt. eigenvalues --    2.93122   2.94225   2.96492   2.97285   2.98553
 Alpha virt. eigenvalues --    3.00318   3.05842   3.08414   3.14993   3.29280
 Alpha virt. eigenvalues --    3.29801   3.31404   3.34005   3.37181   3.38655
 Alpha virt. eigenvalues --    3.41118   3.42138   3.44889   3.48687   3.50221
 Alpha virt. eigenvalues --    3.51428   3.53606   3.53950   3.54673   3.55348
 Alpha virt. eigenvalues --    3.59650   3.60027   3.61395   3.65497   4.33991
 Alpha virt. eigenvalues --    4.45196   4.46843   4.50961   4.57274   4.59959
 Alpha virt. eigenvalues --    4.60911   4.76168   4.83871   4.86471   4.88331
          Condensed to atoms (all electrons):
              1          2          3          4          5          6
     1  C    6.653836  -0.179824  -0.189525   0.305352  -0.005123  -0.254561
     2  C   -0.179824   6.472580   0.079323  -0.668387  -0.020938  -0.169581
     3  C   -0.189525   0.079323   6.053510  -0.490790   0.163676   0.055876
     4  C    0.305352  -0.668387  -0.490790   7.911325  -0.158689  -0.353222
     5  C   -0.005123  -0.020938   0.163676  -0.158689   5.728779  -0.065091
     6  C   -0.254561  -0.169581   0.055876  -0.353222  -0.065091   6.536974
     7  C   -0.365409  -0.088343  -0.081847  -0.012920   0.094846   0.117145
     8  O   -0.021383   0.346671   0.065853  -0.257663   0.009925  -0.055288
     9  C    0.015374   0.301744   0.096037  -0.744927  -0.059298  -0.100478
    10  C    0.007623  -0.046375  -0.040331  -0.037890  -0.038388   0.009350
    11  C   -0.005890  -0.132831   0.031258   0.244056   0.033742  -0.004105
    12  H    0.284232  -0.023492  -0.021877   0.021573  -0.019791  -0.006780
    13  H   -0.003853   0.245485   0.006198  -0.001999   0.003551   0.047652
    14  H    0.036927   0.009951   0.316425  -0.023553  -0.002223   0.002247
    15  H   -0.007012  -0.028728   0.411495  -0.016189  -0.045835  -0.003818
    16  H   -0.004368  -0.034733  -0.013597   0.354473  -0.018768  -0.021247
    17  H   -0.088030   0.006402  -0.077004   0.024459   0.444303  -0.007737
    18  H   -0.043013   0.003810  -0.023271   0.029313   0.340337   0.038049
    19  H   -0.078148  -0.147576   0.012390   0.041541  -0.020569   0.493467
    20  H   -0.026763  -0.045309  -0.007670   0.047396   0.033739   0.338802
    21  H   -0.120903   0.004131  -0.002216   0.001840   0.002396   0.003579
    22  H   -0.111037  -0.004190  -0.010173   0.001321   0.030718   0.001248
    23  H   -0.105997  -0.008310   0.000051   0.000989  -0.001309   0.028174
    24  H    0.020654   0.007152  -0.018652   0.085428  -0.000688  -0.074421
    25  H   -0.001304  -0.013203   0.018207  -0.093758  -0.010285   0.007079
    26  H   -0.000884  -0.005987   0.012757  -0.010370  -0.007072   0.002066
    27  H    0.001006  -0.001903  -0.010712   0.010920   0.000951   0.000564
    28  H    0.000088   0.004081  -0.005599   0.036521   0.001545   0.001024
    29  H    0.000567   0.000759   0.002805  -0.020231  -0.002614  -0.000703
    30  H   -0.000618   0.000354   0.012904  -0.000210  -0.000184  -0.003265
    31  H   -0.000192  -0.005556  -0.000159   0.043739   0.000888   0.000786
              7          8          9         10         11         12
     1  C   -0.365409  -0.021383   0.015374   0.007623  -0.005890   0.284232
     2  C   -0.088343   0.346671   0.301744  -0.046375  -0.132831  -0.023492
     3  C   -0.081847   0.065853   0.096037  -0.040331   0.031258  -0.021877
     4  C   -0.012920  -0.257663  -0.744927  -0.037890   0.244056   0.021573
     5  C    0.094846   0.009925  -0.059298  -0.038388   0.033742  -0.019791
     6  C    0.117145  -0.055288  -0.100478   0.009350  -0.004105  -0.006780
     7  C    5.668574  -0.002440  -0.018655   0.002794  -0.000436   0.034631
     8  O   -0.002440   8.296966  -0.001030  -0.009048  -0.011358  -0.000427
     9  C   -0.018655  -0.001030   6.878168   0.049680  -0.384366  -0.002188
    10  C    0.002794  -0.009048   0.049680   5.482034  -0.107255   0.001898
    11  C   -0.000436  -0.011358  -0.384366  -0.107255   5.648832   0.000917
    12  H    0.034631  -0.000427  -0.002188   0.001898   0.000917   0.569532
    13  H    0.013425  -0.052703  -0.032974   0.004077   0.009792   0.002468
    14  H    0.001899  -0.000423   0.012123  -0.010585  -0.011921  -0.000022
    15  H    0.006680  -0.000001  -0.029360   0.014019   0.005882   0.002901
    16  H    0.006922   0.001309  -0.011675   0.019462  -0.007964   0.000070
    17  H    0.007489  -0.000439  -0.006660   0.001401   0.002916   0.005081
    18  H   -0.017451   0.000065   0.000677   0.000957  -0.001361  -0.004462
    19  H    0.014597   0.000251  -0.008756   0.000897   0.001659   0.004701
    20  H   -0.009164  -0.008171  -0.000110  -0.001993   0.000653  -0.004324
    21  H    0.461263  -0.000110  -0.000117   0.000021   0.000084   0.004776
    22  H    0.451753  -0.000004  -0.000350  -0.000029  -0.000011  -0.003702
    23  H    0.445840   0.000030  -0.000151   0.000047  -0.000042  -0.003806
    24  H   -0.000250   0.220448  -0.009908   0.001335   0.001524  -0.000002
    25  H   -0.000411   0.001090   0.412349  -0.012392  -0.021394   0.000001
    26  H   -0.000255  -0.000068  -0.075650   0.439412  -0.003097   0.000001
    27  H   -0.000080   0.001890  -0.069165   0.433302  -0.006054  -0.000004
    28  H    0.000045   0.000189  -0.117631   0.439762  -0.000005   0.000000
    29  H   -0.000048  -0.000023  -0.071130  -0.000665   0.440526   0.000000
    30  H   -0.000082  -0.000136  -0.103414  -0.000202   0.454232   0.000000
    31  H    0.000006   0.000117  -0.138771   0.004896   0.453878   0.000000
             13         14         15         16         17         18
     1  C   -0.003853   0.036927  -0.007012  -0.004368  -0.088030  -0.043013
     2  C    0.245485   0.009951  -0.028728  -0.034733   0.006402   0.003810
     3  C    0.006198   0.316425   0.411495  -0.013597  -0.077004  -0.023271
     4  C   -0.001999  -0.023553  -0.016189   0.354473   0.024459   0.029313
     5  C    0.003551  -0.002223  -0.045835  -0.018768   0.444303   0.340337
     6  C    0.047652   0.002247  -0.003818  -0.021247  -0.007737   0.038049
     7  C    0.013425   0.001899   0.006680   0.006922   0.007489  -0.017451
     8  O   -0.052703  -0.000423  -0.000001   0.001309  -0.000439   0.000065
     9  C   -0.032974   0.012123  -0.029360  -0.011675  -0.006660   0.000677
    10  C    0.004077  -0.010585   0.014019   0.019462   0.001401   0.000957
    11  C    0.009792  -0.011921   0.005882  -0.007964   0.002916  -0.001361
    12  H    0.002468  -0.000022   0.002901   0.000070   0.005081  -0.004462
    13  H    0.617664  -0.000069   0.002901   0.005384   0.000053  -0.000020
    14  H   -0.000069   0.552194  -0.030691  -0.004413  -0.004162  -0.002673
    15  H    0.002901  -0.030691   0.549079   0.004769   0.004602  -0.004191
    16  H    0.005384  -0.004413   0.004769   0.559125   0.002468  -0.000005
    17  H    0.000053  -0.004162   0.004602   0.002468   0.545296  -0.029581
    18  H   -0.000020  -0.002673  -0.004191  -0.000005  -0.029581   0.553610
    19  H    0.004767  -0.000040   0.000083   0.002953   0.002804  -0.000020
    20  H   -0.006745   0.000010  -0.000037  -0.000052  -0.000049  -0.000139
    21  H   -0.000003   0.000000   0.000001  -0.000005   0.003258  -0.000137
    22  H   -0.000001   0.000002   0.000001   0.000001  -0.000012   0.000010
    23  H    0.000006  -0.000003   0.000003   0.000001  -0.000214   0.002704
    24  H   -0.006113   0.000005  -0.000003  -0.000195   0.000001   0.000000
    25  H    0.000141   0.000012  -0.000035  -0.003552   0.000001   0.000002
    26  H   -0.000112   0.000079  -0.001320  -0.000073  -0.000002   0.000007
    27  H    0.000770   0.000093  -0.000114  -0.000023   0.000000   0.000000
    28  H    0.000006  -0.000014   0.000047  -0.000083   0.000000   0.000000
    29  H    0.000002  -0.000001   0.000093  -0.000162   0.000007   0.000006
    30  H    0.000000  -0.000033   0.000034   0.003807   0.000000   0.000000
    31  H    0.000001  -0.000023  -0.000012   0.000096   0.000000   0.000000
             19         20         21         22         23         24
     1  C   -0.078148  -0.026763  -0.120903  -0.111037  -0.105997   0.020654
     2  C   -0.147576  -0.045309   0.004131  -0.004190  -0.008310   0.007152
     3  C    0.012390  -0.007670  -0.002216  -0.010173   0.000051  -0.018652
     4  C    0.041541   0.047396   0.001840   0.001321   0.000989   0.085428
     5  C   -0.020569   0.033739   0.002396   0.030718  -0.001309  -0.000688
     6  C    0.493467   0.338802   0.003579   0.001248   0.028174  -0.074421
     7  C    0.014597  -0.009164   0.461263   0.451753   0.445840  -0.000250
     8  O    0.000251  -0.008171  -0.000110  -0.000004   0.000030   0.220448
     9  C   -0.008756  -0.000110  -0.000117  -0.000350  -0.000151  -0.009908
    10  C    0.000897  -0.001993   0.000021  -0.000029   0.000047   0.001335
    11  C    0.001659   0.000653   0.000084  -0.000011  -0.000042   0.001524
    12  H    0.004701  -0.004324   0.004776  -0.003702  -0.003806  -0.000002
    13  H    0.004767  -0.006745  -0.000003  -0.000001   0.000006  -0.006113
    14  H   -0.000040   0.000010   0.000000   0.000002  -0.000003   0.000005
    15  H    0.000083  -0.000037   0.000001   0.000001   0.000003  -0.000003
    16  H    0.002953  -0.000052  -0.000005   0.000001   0.000001  -0.000195
    17  H    0.002804  -0.000049   0.003258  -0.000012  -0.000214   0.000001
    18  H   -0.000020  -0.000139  -0.000137   0.000010   0.002704   0.000000
    19  H    0.526003  -0.031461   0.002900  -0.000195  -0.000014  -0.000925
    20  H   -0.031461   0.565387  -0.000181   0.002721   0.000003   0.004989
    21  H    0.002900  -0.000181   0.531143  -0.027986  -0.027818   0.000000
    22  H   -0.000195   0.002721  -0.027986   0.532854  -0.025633   0.000000
    23  H   -0.000014   0.000003  -0.027818  -0.025633   0.531288   0.000000
    24  H   -0.000925   0.004989   0.000000   0.000000   0.000000   0.407709
    25  H    0.000008  -0.000011   0.000000   0.000000   0.000000  -0.000175
    26  H    0.000000   0.000000   0.000000   0.000000   0.000000   0.000001
    27  H   -0.000002   0.000009   0.000000   0.000000   0.000000  -0.000010
    28  H    0.000000   0.000000   0.000000   0.000000   0.000000   0.000000
    29  H    0.000000   0.000000   0.000000   0.000000   0.000000   0.000000
    30  H    0.000001   0.000000   0.000000   0.000000   0.000000   0.000000
    31  H    0.000000   0.000000   0.000000   0.000000   0.000000   0.000000
             25         26         27         28         29         30
     1  C   -0.001304  -0.000884   0.001006   0.000088   0.000567  -0.000618
     2  C   -0.013203  -0.005987  -0.001903   0.004081   0.000759   0.000354
     3  C    0.018207   0.012757  -0.010712  -0.005599   0.002805   0.012904
     4  C   -0.093758  -0.010370   0.010920   0.036521  -0.020231  -0.000210
     5  C   -0.010285  -0.007072   0.000951   0.001545  -0.002614  -0.000184
     6  C    0.007079   0.002066   0.000564   0.001024  -0.000703  -0.003265
     7  C   -0.000411  -0.000255  -0.000080   0.000045  -0.000048  -0.000082
     8  O    0.001090  -0.000068   0.001890   0.000189  -0.000023  -0.000136
     9  C    0.412349  -0.075650  -0.069165  -0.117631  -0.071130  -0.103414
    10  C   -0.012392   0.439412   0.433302   0.439762  -0.000665  -0.000202
    11  C   -0.021394  -0.003097  -0.006054  -0.000005   0.440526   0.454232
    12  H    0.000001   0.000001  -0.000004   0.000000   0.000000   0.000000
    13  H    0.000141  -0.000112   0.000770   0.000006   0.000002   0.000000
    14  H    0.000012   0.000079   0.000093  -0.000014  -0.000001  -0.000033
    15  H   -0.000035  -0.001320  -0.000114   0.000047   0.000093   0.000034
    16  H   -0.003552  -0.000073  -0.000023  -0.000083  -0.000162   0.003807
    17  H    0.000001  -0.000002   0.000000   0.000000   0.000007   0.000000
    18  H    0.000002   0.000007   0.000000   0.000000   0.000006   0.000000
    19  H    0.000008   0.000000  -0.000002   0.000000   0.000000   0.000001
    20  H   -0.000011   0.000000   0.000009   0.000000   0.000000   0.000000
    21  H    0.000000   0.000000   0.000000   0.000000   0.000000   0.000000
    22  H    0.000000   0.000000   0.000000   0.000000   0.000000   0.000000
    23  H    0.000000   0.000000   0.000000   0.000000   0.000000   0.000000
    24  H   -0.000175   0.000001  -0.000010   0.000000   0.000000   0.000000
    25  H    0.540404   0.004661  -0.003416  -0.003926   0.004700  -0.003675
    26  H    0.004661   0.539441  -0.029481  -0.028504   0.003351  -0.000002
    27  H   -0.003416  -0.029481   0.538178  -0.025339   0.000008  -0.000133
    28  H   -0.003926  -0.028504  -0.025339   0.531139  -0.000184   0.000064
    29  H    0.004700   0.003351   0.000008  -0.000184   0.542756  -0.029122
    30  H   -0.003675  -0.000002  -0.000133   0.000064  -0.029122   0.532458
    31  H   -0.004108  -0.000135   0.000039   0.002563  -0.028864  -0.024863
             31
     1  C   -0.000192
     2  C   -0.005556
     3  C   -0.000159
     4  C    0.043739
     5  C    0.000888
     6  C    0.000786
     7  C    0.000006
     8  O    0.000117
     9  C   -0.138771
    10  C    0.004896
    11  C    0.453878
    12  H    0.000000
    13  H    0.000001
    14  H   -0.000023
    15  H   -0.000012
    16  H    0.000096
    17  H    0.000000
    18  H    0.000000
    19  H    0.000000
    20  H    0.000000
    21  H    0.000000
    22  H    0.000000
    23  H    0.000000
    24  H    0.000000
    25  H   -0.004108
    26  H   -0.000135
    27  H    0.000039
    28  H    0.002563
    29  H   -0.028864
    30  H   -0.024863
    31  H    0.532049
 Mulliken atomic charges:
              1
     1  C    0.288175
     2  C    0.142821
     3  C   -0.345344
     4  C   -0.269450
     5  C   -0.412533
     6  C   -0.563784
     7  C   -0.730118
     8  O   -0.524087
     9  C    0.220610
    10  C   -0.607816
    11  C   -0.631863
    12  H    0.158095
    13  H    0.140246
    14  H    0.158881
    15  H    0.164756
    16  H    0.160075
    17  H    0.163353
    18  H    0.156777
    19  H    0.178687
    20  H    0.148468
    21  H    0.164084
    22  H    0.162694
    23  H    0.164161
    24  H    0.362096
    25  H    0.182990
    26  H    0.161238
    27  H    0.158705
    28  H    0.164209
    29  H    0.158165
    30  H    0.162084
    31  H    0.163625
 Sum of Mulliken atomic charges =   0.00000
 Mulliken charges with hydrogens summed into heavy atoms:
              1
     1  C    0.446270
     2  C    0.283067
     3  C   -0.021707
     4  C   -0.109375
     5  C   -0.092403
     6  C   -0.236628
     7  C   -0.239180
     8  O   -0.161991
     9  C    0.403600
    10  C   -0.123664
    11  C   -0.147988
 Sum of Mulliken charges with hydrogens summed into heavy atoms =   0.00000
 Electronic spatial extent (au):  <R**2>=           2226.6516
 Charge=              0.0000 electrons
 Dipole moment (field-independent basis, Debye):
    X=              1.4994    Y=             -0.0927    Z=              1.0569  Tot=              1.8368
 Quadrupole moment (field-independent basis, Debye-Ang):
   XX=            -73.0234   YY=            -69.6622   ZZ=            -72.8215
   XY=              3.0819   XZ=              0.0522   YZ=              2.6908
 Traceless Quadrupole moment (field-independent basis, Debye-Ang):
   XX=             -1.1877   YY=              2.1735   ZZ=             -0.9858
   XY=              3.0819   XZ=              0.0522   YZ=              2.6908
 Octapole moment (field-independent basis, Debye-Ang**2):
  XXX=             -4.1243  YYY=             25.9548  ZZZ=             -2.6518  XYY=             10.7003
  XXY=              4.0229  XXZ=              0.7466  XZZ=              2.6524  YZZ=              1.2909
  YYZ=              7.7602  XYZ=             -0.9124
 Hexadecapole moment (field-independent basis, Debye-Ang**3):
 XXXX=          -2108.2679 YYYY=           -593.7268 ZZZZ=           -311.2638 XXXY=            -11.6604
 XXXZ=              7.1262 YYYX=             18.8731 YYYZ=              8.2416 ZZZX=              2.8938
 ZZZY=              0.1732 XXYY=           -469.3055 XXZZ=           -408.3071 YYZZ=           -171.4216
 XXYZ=             -2.8897 YYXZ=              0.6209 ZZXY=             -2.2249
 N-N= 6.868021913289D+02 E-N=-2.459028475320D+03  KE= 4.637014616330D+02
 1\1\GINC-COMPUTE-10-8\SP\RmPW1PW91\6-31+G(d,p)\C10H20O1\ASAROTTI.IQUIR
 \19-Sep-2024\0\\# mPW1PW91/6-31+G** nmr scrf=(pcm,solvent=benzene)\\co
 mment\\0,1\C,0,2.241883,-0.265745,0.365093\C,0,0.109896,1.13947,0.1616
 91\C,0,-0.048867,-1.368753,0.196527\C,0,-0.678902,-0.07438,-0.358735\C
 ,0,1.445339,-1.480427,-0.140225\C,0,1.603897,1.026179,-0.172833\C,0,3.
 728207,-0.3592,0.002205\O,0,-0.456699,2.311686,-0.431039\C,0,-2.209822
 ,0.052263,-0.121254\C,0,-2.622048,0.006384,1.359366\C,0,-2.996628,-0.9
 91145,-0.931092\H,0,2.161117,-0.249464,1.464139\H,0,0.000996,1.190329,
 1.259383\H,0,-0.580739,-2.24237,-0.197969\H,0,-0.169198,-1.401405,1.28
 853\H,0,-0.534925,-0.077103,-1.451208\H,0,1.570149,-1.560329,-1.230895
 \H,0,1.859196,-2.403135,0.288455\H,0,1.712656,1.066644,-1.266422\H,0,2
 .135535,1.90264,0.229165\H,0,3.865831,-0.3799,-1.086476\H,0,4.290187,0
 .497944,0.392546\H,0,4.17963,-1.270738,0.412035\H,0,0.052326,3.07383,-
 0.113824\H,0,-2.48657,1.040597,-0.506402\H,0,-2.411249,-0.96957,1.8133
 03\H,0,-2.109879,0.771945,1.952802\H,0,-3.699446,0.184886,1.458166\H,0
 ,-2.815722,-2.012372,-0.573452\H,0,-2.729091,-0.956696,-1.994336\H,0,-
 4.074937,-0.8071,-0.853685\\Version=EM64L-G09RevC.01\State=1-A\HF=-468
 .2858709\RMSD=7.800e-09\Dipole=0.5899284,-0.0364679,0.4158076\Quadrupo
 le=-0.8830301,1.6159646,-0.7329345,2.2912903,0.0388319,2.0005755\PG=C0
 1 [X(C10H20O1)]\\@


 SCIENCE IS A VERY HUMAN FORM OF KNOWLEDGE.
 WE ARE ALWAYS AT THE BRINK OF THE KNOWN,
 WE ALWAYS FEEL FORWARD FOR WHAT IS HOPED.
 EVERY JUDGEMENT IN SCIENCE STANDS ON THE EDGE OF ERROR, AND IS PERSONAL.
 SCIENCE IS A TRIBUTE TO WHAT WE CAN KNOW ALTHOUGH WE ARE FALLIBLE.

                     -- J. BRONOWSKI
 Job cpu time:  0 days  0 hours 13 minutes 43.9 seconds.
 File lengths (MBytes):  RWF=    121 Int=      0 D2E=      0 Chk=      7 Scr=      1
 Normal termination of Gaussian 09 at Thu Sep 19 07:48:57 2024.
