 Entering Gaussian System, Link 0=g09
 Input=/home/asarotti.iquir/SCF2/01_Mentol10_OptB_NMR_benzene.gjc
 Output=/home/asarotti.iquir/SCF2/01_Mentol10_OptB_NMR_benzene.log
 Initial command:
 /opt/ohpc/pub/apps/software/Gaussian/09/AMD64.SSE4a-enabled/g09/l1.exe /local/asarotti.iquir/Gau-2481061.inp -scrdir=/local/asarotti.iquir/
 Entering Link 1 = /opt/ohpc/pub/apps/software/Gaussian/09/AMD64.SSE4a-enabled/g09/l1.exe PID=   2481062.
  
 Copyright (c) 1988,1990,1992,1993,1995,1998,2003,2009,2011,
            Gaussian, Inc.  All Rights Reserved.
  
 This is part of the Gaussian(R) 09 program.  It is based on
 the Gaussian(R) 03 system (copyright 2003, Gaussian, Inc.),
 the Gaussian(R) 98 system (copyright 1998, Gaussian, Inc.),
 the Gaussian(R) 94 system (copyright 1995, Gaussian, Inc.),
 the Gaussian 92(TM) system (copyright 1992, Gaussian, Inc.),
 the Gaussian 90(TM) system (copyright 1990, Gaussian, Inc.),
 the Gaussian 88(TM) system (copyright 1988, Gaussian, Inc.),
 the Gaussian 86(TM) system (copyright 1986, Carnegie Mellon
 University), and the Gaussian 82(TM) system (copyright 1983,
 Carnegie Mellon University). Gaussian is a federally registered
 trademark of Gaussian, Inc.
  
 This software contains proprietary and confidential information,
 including trade secrets, belonging to Gaussian, Inc.
  
 This software is provided under written license and may be
 used, copied, transmitted, or stored only in accord with that
 written license.
  
 The following legend is applicable only to US Government
 contracts under FAR:
  
                    RESTRICTED RIGHTS LEGEND
  
 Use, reproduction and disclosure by the US Government is
 subject to restrictions as set forth in subparagraphs (a)
 and (c) of the Commercial Computer Software - Restricted
 Rights clause in FAR 52.227-19.
  
 Gaussian, Inc.
 340 Quinnipiac St., Bldg. 40, Wallingford CT 06492
  
  
 ---------------------------------------------------------------
 Warning -- This program may not be used in any manner that
 competes with the business of Gaussian, Inc. or will provide
 assistance to any competitor of Gaussian, Inc.  The licensee
 of this program is prohibited from giving any competitor of
 Gaussian, Inc. access to this program.  By using this program,
 the user acknowledges that Gaussian, Inc. is engaged in the
 business of creating and licensing software in the field of
 computational chemistry and represents and warrants to the
 licensee that it is not a competitor of Gaussian, Inc. and that
 it will not use this program in any manner prohibited above.
 ---------------------------------------------------------------
  

 Cite this work as:
 Gaussian 09, Revision C.01,
 M. J. Frisch, G. W. Trucks, H. B. Schlegel, G. E. Scuseria, 
 M. A. Robb, J. R. Cheeseman, G. Scalmani, V. Barone, B. Mennucci, 
 G. A. Petersson, H. Nakatsuji, M. Caricato, X. Li, H. P. Hratchian, 
 A. F. Izmaylov, J. Bloino, G. Zheng, J. L. Sonnenberg, M. Hada, 
 M. Ehara, K. Toyota, R. Fukuda, J. Hasegawa, M. Ishida, T. Nakajima, 
 Y. Honda, O. Kitao, H. Nakai, T. Vreven, J. A. Montgomery, Jr., 
 J. E. Peralta, F. Ogliaro, M. Bearpark, J. J. Heyd, E. Brothers, 
 K. N. Kudin, V. N. Staroverov, T. Keith, R. Kobayashi, J. Normand, 
 K. Raghavachari, A. Rendell, J. C. Burant, S. S. Iyengar, J. Tomasi, 
 M. Cossi, N. Rega, J. M. Millam, M. Klene, J. E. Knox, J. B. Cross, 
 V. Bakken, C. Adamo, J. Jaramillo, R. Gomperts, R. E. Stratmann, 
 O. Yazyev, A. J. Austin, R. Cammi, C. Pomelli, J. W. Ochterski, 
 R. L. Martin, K. Morokuma, V. G. Zakrzewski, G. A. Voth, 
 P. Salvador, J. J. Dannenberg, S. Dapprich, A. D. Daniels, 
 O. Farkas, J. B. Foresman, J. V. Ortiz, J. Cioslowski, 
 and D. J. Fox, Gaussian, Inc., Wallingford CT, 2010.
 
 ******************************************
 Gaussian 09:  AM64L-G09RevC.01 23-Sep-2011
                19-Sep-2024 
 ******************************************
 %nprocshared=4
 Will use up to    4 processors via shared memory.
 %mem=100mw
 --------------------------------------------------
 # mPW1PW91/6-31+G** nmr scrf=(pcm,solvent=benzene)
 --------------------------------------------------
 1/38=1/1;
 2/12=2,17=6,18=5,40=1/2;
 3/5=1,6=6,7=111,11=2,16=1,25=1,30=1,70=2201,72=12,74=-7/1,2,8,3;
 4//1;
 5/5=2,38=5,53=12/2;
 8/6=1,10=90,11=11/1;
 10/13=100,45=16/2;
 6/7=2,8=2,9=2,10=2,28=1/1;
 99/9=1/99;
 -------
 comment
 -------
 Charge =  0 Multiplicity = 1
 Symbolic Z-Matrix:
 6                    -1.88549  -0.5953   -0.79294 
 6                    -0.22634   1.25962  -0.02052 
 6                    -0.12811  -1.0214    1.02289 
 6                     0.72251   0.19243   0.5862 
 6                    -0.93487  -1.62239  -0.13864 
 6                    -1.11321   0.69881  -1.14134 
 6                    -3.14451  -0.33688   0.05215 
 8                    -1.09766   1.79756   0.98539 
 6                     1.92741  -0.14714  -0.3409 
 6                     2.74286  -1.34717   0.17126 
 6                     2.8705    1.0582   -0.51581 
 1                    -2.22824  -1.02546  -1.74545 
 1                     0.36495   2.08504  -0.44301 
 1                    -0.81846  -0.68216   1.80363 
 1                     0.50127  -1.78881   1.48587 
 1                     1.16056   0.63594   1.49792 
 1                    -1.51292  -2.48539   0.21747 
 1                    -0.24427  -2.01111  -0.90071 
 1                    -1.81239   1.48621  -1.44873 
 1                    -0.46546   0.5033   -2.00661 
 1                    -2.90558   0.115     1.01761 
 1                    -3.82204   0.35068  -0.46854 
 1                    -3.68963  -1.2732    0.2266 
 1                    -0.53726   2.1548    1.69246 
 1                     1.54286  -0.41292  -1.33561 
 1                     3.08837  -1.17965   1.20016 
 1                     2.16998  -2.27916   0.15825 
 1                     3.63084  -1.49932  -0.4534 
 1                     3.29176   1.3655    0.4508 
 1                     2.37302   1.92892  -0.95388 
 1                     3.70941   0.79866  -1.17196 
 
                          Input orientation:                          
 ---------------------------------------------------------------------
 Center     Atomic      Atomic             Coordinates (Angstroms)
 Number     Number       Type             X           Y           Z
 ---------------------------------------------------------------------
      1          6           0       -1.885489   -0.595302   -0.792943
      2          6           0       -0.226343    1.259624   -0.020517
      3          6           0       -0.128108   -1.021395    1.022885
      4          6           0        0.722509    0.192432    0.586201
      5          6           0       -0.934869   -1.622390   -0.138643
      6          6           0       -1.113207    0.698809   -1.141343
      7          6           0       -3.144509   -0.336880    0.052148
      8          8           0       -1.097657    1.797555    0.985386
      9          6           0        1.927414   -0.147141   -0.340902
     10          6           0        2.742857   -1.347174    0.171263
     11          6           0        2.870496    1.058199   -0.515809
     12          1           0       -2.228239   -1.025456   -1.745453
     13          1           0        0.364951    2.085037   -0.443006
     14          1           0       -0.818461   -0.682156    1.803632
     15          1           0        0.501266   -1.788809    1.485872
     16          1           0        1.160561    0.635937    1.497915
     17          1           0       -1.512921   -2.485393    0.217473
     18          1           0       -0.244269   -2.011109   -0.900707
     19          1           0       -1.812392    1.486211   -1.448729
     20          1           0       -0.465456    0.503302   -2.006610
     21          1           0       -2.905584    0.115003    1.017608
     22          1           0       -3.822044    0.350679   -0.468541
     23          1           0       -3.689635   -1.273195    0.226602
     24          1           0       -0.537259    2.154804    1.692460
     25          1           0        1.542859   -0.412924   -1.335609
     26          1           0        3.088373   -1.179652    1.200158
     27          1           0        2.169976   -2.279164    0.158253
     28          1           0        3.630843   -1.499322   -0.453402
     29          1           0        3.291761    1.365504    0.450798
     30          1           0        2.373018    1.928916   -0.953875
     31          1           0        3.709409    0.798661   -1.171959
 ---------------------------------------------------------------------
                    Distance matrix (angstroms):
                    1          2          3          4          5
     1  C    0.000000
     2  C    2.605793   0.000000
     3  C    2.562650   2.510256   0.000000
     4  C    3.053558   1.551556   1.545192   0.000000
     5  C    1.544894   2.970180   1.536621   2.562397   0.000000
     6  C    1.546779   1.535348   2.934860   2.571124   2.534793
     7  C    1.538211   3.327131   3.241846   3.939443   2.563483
     8  O    3.083650   1.435409   2.981260   2.459425   3.603604
     9  C    3.865672   2.592355   2.617137   1.557763   3.226443
    10  C    4.787128   3.955796   3.012280   2.573784   3.701007
    11  C    5.042843   3.142658   3.960292   2.564727   4.669969
    12  H    1.099902   3.493506   3.474804   3.953072   2.147318
    13  H    3.517265   1.099742   3.470139   2.183820   3.940455
    14  H    2.808611   2.729218   1.096009   2.149798   2.161024
    15  H    3.509139   3.477293   1.095168   2.187161   2.174679
    16  H    4.005297   2.148982   2.152457   1.104449   3.488437
    17  H    2.175360   3.966998   2.170181   3.507685   1.098061
    18  H    2.170190   3.387145   2.166387   2.828630   1.099442
    19  H    2.183597   2.146318   3.903047   3.498646   3.485652
    20  H    2.167121   2.138636   3.408276   2.868897   2.868487
    21  H    2.196183   3.092926   3.000967   3.654472   2.870395
    22  H    2.179533   3.735769   4.213324   4.668028   3.512494
    23  H    2.180356   4.297747   3.658134   4.663088   2.800728
    24  H    3.944368   1.957628   3.271693   2.581032   4.216423
    25  H    3.475819   2.767121   2.953788   2.175496   3.005773
    26  H    5.390104   4.292721   3.225247   2.803011   4.263201
    27  H    4.492990   4.277537   2.758761   2.896047   3.187407
    28  H    5.600220   4.762043   4.066639   3.521536   4.578203
    29  H    5.674114   3.551113   4.209522   2.827629   5.209544
    30  H    4.953025   2.841793   4.343679   2.848050   4.921229
    31  H    5.778379   4.126554   4.780845   3.518553   5.338403
                    6          7          8          9         10
     6  C    0.000000
     7  C    2.573570   0.000000
     8  O    2.393838   3.101024   0.000000
     9  C    3.256027   5.090667   3.833006   0.000000
    10  C    4.558312   5.974610   5.030076   1.538616   0.000000
    11  C    4.048499   6.200734   4.306562   1.540403   2.504831
    12  H    2.140405   2.131914   4.087186   4.473662   5.337518
    13  H    2.143421   4.292688   2.064503   2.726598   4.220407
    14  H    3.266009   2.932134   2.626108   3.524925   3.973646
    15  H    3.961947   4.177959   3.958415   2.840084   2.635900
    16  H    3.484201   4.644378   2.590674   2.140683   2.862935
    17  H    3.485010   2.702873   4.371016   4.197036   4.405601
    18  H    2.855979   3.481719   4.334921   2.916156   3.242353
    19  H    1.096972   2.711241   2.555914   4.228625   5.603815
    20  H    1.098404   3.481625   3.320664   2.987220   4.296588
    21  H    2.866097   1.092427   2.469943   5.027140   5.895689
    22  H    2.812766   1.096772   3.410226   5.772381   6.811019
    23  H    3.521087   1.097398   4.089451   5.756848   6.433155
    24  H    3.237604   3.961927   0.970374   3.938036   5.033592
    25  H    2.885893   4.889077   4.152777   1.099075   2.140907
    26  H    5.163770   6.393513   5.141278   2.188326   1.098212
    27  H    4.619152   5.659282   5.289727   2.203069   1.094060
    28  H    5.273619   6.892913   5.941231   2.177779   1.096300
    29  H    4.731082   6.669528   4.442909   2.185481   2.781736
    30  H    3.701631   6.048886   3.977886   2.210048   3.483602
    31  H    4.823747   7.054366   5.362817   2.181904   2.709811
                   11         12         13         14         15
    11  C    0.000000
    12  H    5.643646   0.000000
    13  H    2.708773   4.253959   0.000000
    14  H    4.692232   3.834232   3.755689   0.000000
    15  H    4.210158   4.298182   4.329646   1.751380   0.000000
    16  H    2.675307   4.976307   2.549522   2.397365   2.512809
    17  H    5.684109   2.548759   4.985124   2.499968   2.480124
    18  H    4.389824   2.370916   4.166419   3.067452   2.510179
    19  H    4.794056   2.563093   2.472022   4.033307   4.968969
    20  H    3.695805   2.347916   2.374093   4.005979   4.287861
    21  H    6.050131   3.064955   4.087888   2.368413   3.930699
    22  H    6.730001   2.462614   4.532061   3.905257   5.204628
    23  H    7.001563   2.466993   5.307143   3.328662   4.406276
    24  H    4.206161   4.979228   2.319281   2.853029   4.083295
    25  H    2.144503   3.842440   2.902416   3.937404   3.307375
    26  H    2.828425   6.080030   4.557983   3.984349   2.673168
    27  H    3.476072   4.953804   4.760869   3.766758   2.188062
    28  H    2.668883   6.018537   4.849102   5.055519   3.693080
    29  H    1.098285   6.403953   3.143697   4.787170   4.336811
    30  H    1.094319   5.525077   2.077906   4.960552   4.824655
    31  H    1.096206   6.237945   3.656711   5.616811   4.904207
                   16         17         18         19         20
    16  H    0.000000
    17  H    4.304618   0.000000
    18  H    3.838462   1.756346   0.000000
    19  H    4.271314   4.317355   3.871768   0.000000
    20  H    3.865646   3.869887   2.755759   1.758288   0.000000
    21  H    4.127421   3.056433   3.909333   3.026235   3.905239
    22  H    5.364203   3.721017   4.308745   2.507768   3.695353
    23  H    5.365205   2.491504   3.699444   3.734313   4.305637
    24  H    2.286350   4.965776   4.915810   3.455438   4.051633
    25  H    3.045508   4.005619   2.436629   3.857100   2.307172
    26  H    2.664861   4.882882   4.026345   6.175834   5.073992
    27  H    3.363246   3.689142   2.649873   5.711365   4.401619
    28  H    3.803848   5.280219   3.934273   6.287519   4.816910
    29  H    2.484097   6.161884   5.072631   5.447490   4.571534
    30  H    3.025413   5.996558   4.730414   4.237750   3.346276
    31  H    3.694771   6.323627   4.857978   5.571321   4.267713
                   21         22         23         24         25
    21  H    0.000000
    22  H    1.761840   0.000000
    23  H    1.779753   1.771362   0.000000
    24  H    3.197683   4.326038   4.882355   0.000000
    25  H    5.060137   5.487903   5.528070   4.482111   0.000000
    26  H    6.134898   7.271886   6.848208   4.950370   3.067018
    27  H    5.677309   6.573678   5.945728   5.416917   2.471386
    28  H    6.891647   7.679079   7.355470   5.943941   2.513608
    29  H    6.347607   7.244396   7.466786   4.101965   3.068015
    30  H    5.919516   6.411332   6.957212   3.940029   2.513782
    31  H    7.001409   7.577484   7.809892   5.298888   2.487701
                   26         27         28         29         30
    26  H    0.000000
    27  H    1.771425   0.000000
    28  H    1.769385   1.765335   0.000000
    29  H    2.660963   3.824603   3.023207   0.000000
    30  H    3.848998   4.357292   3.685839   1.770488   0.000000
    31  H    3.150611   3.689488   2.408988   1.768921   1.763796
                   31
    31  H    0.000000
 Stoichiometry    C10H20O
 Framework group  C1[X(C10H20O)]
 Deg. of freedom    87
 Full point group                 C1      NOp   1
 Largest Abelian subgroup         C1      NOp   1
 Largest concise Abelian subgroup C1      NOp   1
                         Standard orientation:                         
 ---------------------------------------------------------------------
 Center     Atomic      Atomic             Coordinates (Angstroms)
 Number     Number       Type             X           Y           Z
 ---------------------------------------------------------------------
      1          6           0       -1.885489   -0.595302   -0.792943
      2          6           0       -0.226343    1.259624   -0.020517
      3          6           0       -0.128108   -1.021395    1.022885
      4          6           0        0.722509    0.192432    0.586201
      5          6           0       -0.934869   -1.622390   -0.138643
      6          6           0       -1.113207    0.698809   -1.141343
      7          6           0       -3.144509   -0.336880    0.052148
      8          8           0       -1.097657    1.797555    0.985386
      9          6           0        1.927414   -0.147141   -0.340902
     10          6           0        2.742857   -1.347174    0.171263
     11          6           0        2.870496    1.058199   -0.515809
     12          1           0       -2.228239   -1.025456   -1.745453
     13          1           0        0.364951    2.085037   -0.443006
     14          1           0       -0.818461   -0.682156    1.803632
     15          1           0        0.501266   -1.788809    1.485872
     16          1           0        1.160561    0.635937    1.497915
     17          1           0       -1.512921   -2.485393    0.217473
     18          1           0       -0.244269   -2.011109   -0.900707
     19          1           0       -1.812392    1.486211   -1.448729
     20          1           0       -0.465456    0.503302   -2.006610
     21          1           0       -2.905584    0.115003    1.017608
     22          1           0       -3.822044    0.350679   -0.468541
     23          1           0       -3.689635   -1.273195    0.226602
     24          1           0       -0.537259    2.154804    1.692460
     25          1           0        1.542859   -0.412924   -1.335609
     26          1           0        3.088373   -1.179652    1.200158
     27          1           0        2.169976   -2.279164    0.158253
     28          1           0        3.630843   -1.499322   -0.453402
     29          1           0        3.291761    1.365504    0.450798
     30          1           0        2.373018    1.928916   -0.953875
     31          1           0        3.709409    0.798661   -1.171959
 ---------------------------------------------------------------------
 Rotational constants (GHZ):      1.7126489      0.7816739      0.6613974
 Standard basis: 6-31+G(d,p) (6D, 7F)
 There are   309 symmetry adapted basis functions of A   symmetry.
 Integral buffers will be    131072 words long.
 Raffenetti 2 integral format.
 Two-electron integral symmetry is turned on.
   309 basis functions,   492 primitive gaussians,   309 cartesian basis functions
    44 alpha electrons       44 beta electrons
       nuclear repulsion energy       701.5366243857 Hartrees.
 NAtoms=   31 NActive=   31 NUniq=   31 SFac= 1.00D+00 NAtFMM=   60 NAOKFM=F Big=F
 ------------------------------------------------------------------------------
 Polarizable Continuum Model (PCM)
 =================================
 Model                : PCM.
 Atomic radii         : UFF (Universal Force Field).
 Polarization charges : Total charges.
 Charge compensation  : None.
 Solution method      : Matrix inversion.
 Cavity type          : Scaled VdW (van der Waals Surface) (Alpha=1.100).
 Cavity algorithm     : GePol (No added spheres)
                        Default sphere list used, NSphG=   31.
                        Lebedev-Laikov grids with approx.  5.0 points / Ang**2.
                        Smoothing algorithm: Karplus/York (Gamma=1.0000).
                        Polarization charges: spherical gaussians, with
                                              point-specific exponents (IZeta= 3).
                        Self-potential: point-specific (ISelfS= 7).
                        Self-field    : sphere-specific E.n sum rule (ISelfD= 2).
 Solvent              : Benzene, Eps=   2.270600 Eps(inf)=   2.253301
 ------------------------------------------------------------------------------
 One-electron integrals computed using PRISM.
 NBasis=   309 RedAO= T  NBF=   309
 NBsUse=   309 1.00D-06 NBFU=   309
 Harris functional with IExCor=  908 diagonalized for initial guess.
 ExpMin= 4.38D-02 ExpMax= 5.48D+03 ExpMxC= 8.25D+02 IAcc=2 IRadAn=         4 AccDes= 0.00D+00
 HarFok:  IExCor=  908 AccDes= 0.00D+00 IRadAn=         4 IDoV= 1
 ScaDFX=  1.000000  1.000000  1.000000  1.000000
 FoFCou: FMM=F IPFlag=           0 FMFlag=      100000 FMFlg1=           0
         NFxFlg=           0 DoJE=T BraDBF=F KetDBF=T FulRan=T
         Omega=  0.000000  0.000000  1.000000  0.000000  0.000000 ICntrl=     500 IOpCl=  0
         NMat0=    1 NMatS0=    1 NMatT0=    0 NMatD0=    1 NMtDS0=    0 NMtDT0=    0
         I1Cent=           4 NGrid=           0.
 Petite list used in FoFCou.
 Initial guess orbital symmetries:
       Occupied  (A) (A) (A) (A) (A) (A) (A) (A) (A) (A) (A) (A)
                 (A) (A) (A) (A) (A) (A) (A) (A) (A) (A) (A) (A)
                 (A) (A) (A) (A) (A) (A) (A) (A) (A) (A) (A) (A)
                 (A) (A) (A) (A) (A) (A) (A) (A)
       Virtual   (A) (A) (A) (A) (A) (A) (A) (A) (A) (A) (A) (A)
                 (A) (A) (A) (A) (A) (A) (A) (A) (A) (A) (A) (A)
                 (A) (A) (A) (A) (A) (A) (A) (A) (A) (A) (A) (A)
                 (A) (A) (A) (A) (A) (A) (A) (A) (A) (A) (A) (A)
                 (A) (A) (A) (A) (A) (A) (A) (A) (A) (A) (A) (A)
                 (A) (A) (A) (A) (A) (A) (A) (A) (A) (A) (A) (A)
                 (A) (A) (A) (A) (A) (A) (A) (A) (A) (A) (A) (A)
                 (A) (A) (A) (A) (A) (A) (A) (A) (A) (A) (A) (A)
                 (A) (A) (A) (A) (A) (A) (A) (A) (A) (A) (A) (A)
                 (A) (A) (A) (A) (A) (A) (A) (A) (A) (A) (A) (A)
                 (A) (A) (A) (A) (A) (A) (A) (A) (A) (A) (A) (A)
                 (A) (A) (A) (A) (A) (A) (A) (A) (A) (A) (A) (A)
                 (A) (A) (A) (A) (A) (A) (A) (A) (A) (A) (A) (A)
                 (A) (A) (A) (A) (A) (A) (A) (A) (A) (A) (A) (A)
                 (A) (A) (A) (A) (A) (A) (A) (A) (A) (A) (A) (A)
                 (A) (A) (A) (A) (A) (A) (A) (A) (A) (A) (A) (A)
                 (A) (A) (A) (A) (A) (A) (A) (A) (A) (A) (A) (A)
                 (A) (A) (A) (A) (A) (A) (A) (A) (A) (A) (A) (A)
                 (A) (A) (A) (A) (A) (A) (A) (A) (A) (A) (A) (A)
                 (A) (A) (A) (A) (A) (A) (A) (A) (A) (A) (A) (A)
                 (A) (A) (A) (A) (A) (A) (A) (A) (A) (A) (A) (A)
                 (A) (A) (A) (A) (A) (A) (A) (A) (A) (A) (A) (A)
                 (A)
 The electronic state of the initial guess is 1-A.
 Requested convergence on RMS density matrix=1.00D-08 within 128 cycles.
 Requested convergence on MAX density matrix=1.00D-06.
 Requested convergence on             energy=1.00D-06.
 No special actions if energy rises.
 Error on total polarization charges =  0.00928
 SCF Done:  E(RmPW1PW91) =  -468.277123405     A.U. after   12 cycles
             Convg  =    0.6775D-08             -V/T =  2.0099
 Range of M.O.s used for correlation:     1   309
 NBasis=   309 NAE=    44 NBE=    44 NFC=     0 NFV=     0
 NROrb=    309 NOA=    44 NOB=    44 NVA=   265 NVB=   265

 **** Warning!!: The largest alpha MO coefficient is  0.71221575D+02

 NEqPCM:  Using equilibrium solvation (IEInf=0, Eps=   2.2706, EpsInf=   2.2533)
          Differentiating once with respect to magnetic field using GIAOs.
          Electric field/nuclear overlap derivatives assumed to be zero.
 FoFCou: FMM=F IPFlag=           0 FMFlag=    10101102 FMFlg1=           0
         NFxFlg=    40000000 DoJE=F BraDBF=F KetDBF=T FulRan=T
         Omega=  0.000000  0.000000  1.000000  0.000000  0.000000 ICntrl=    6100 IOpCl=  0
         NMat0=    1 NMatS0=    1 NMatT0=    0 NMatD0=    1 NMtDS0=    0 NMtDT0=    0
         I1Cent=           7 NGrid=        1907.
 Symmetry not used in FoFCou.
          There are     3 degrees of freedom in the 1st order CPHF.  IDoFFX=0.
      3 vectors produced by pass  0 Test12= 3.89D-13 3.33D-08 XBig12= 2.80D+01 8.73D-01.
 AX will form     3 AO Fock derivatives at one time.
      3 vectors produced by pass  1 Test12= 3.89D-13 3.33D-08 XBig12= 6.09D-02 4.44D-02.
      3 vectors produced by pass  2 Test12= 3.89D-13 3.33D-08 XBig12= 1.32D-04 3.09D-03.
      3 vectors produced by pass  3 Test12= 3.89D-13 3.33D-08 XBig12= 5.11D-07 1.46D-04.
      3 vectors produced by pass  4 Test12= 3.89D-13 3.33D-08 XBig12= 1.18D-09 5.21D-06.
      3 vectors produced by pass  5 Test12= 3.89D-13 3.33D-08 XBig12= 2.44D-12 2.33D-07.
 Inverted reduced A of dimension    18 with in-core refinement.
 Calculating GIAO nuclear magnetic shielding tensors.
 SCF GIAO Magnetic shielding tensor (ppm):
      1  C    Isotropic =   165.1003   Anisotropy =     2.5441
   XX=   165.8314   YX=    -0.4354   ZX=    -2.4326
   XY=     1.2326   YY=   164.1557   ZY=    -1.9880
   XZ=     0.3967   YZ=     0.8173   ZZ=   165.3138
   Eigenvalues:   163.9109   164.5937   166.7964
      2  C    Isotropic =   124.9639   Anisotropy =    56.5961
   XX=   129.0437   YX=   -10.7554   ZX=   -22.5095
   XY=   -16.5419   YY=   108.1040   ZY=    14.5328
   XZ=   -22.9884   YZ=    10.3514   ZZ=   137.7441
   Eigenvalues:   101.3014   110.8958   162.6947
      3  C    Isotropic =   176.7024   Anisotropy =    19.0987
   XX=   180.7866   YX=     7.3295   ZX=     5.7571
   XY=     9.2714   YY=   179.2062   ZY=    -0.8604
   XZ=     3.3197   YZ=     4.5285   ZZ=   170.1143
   Eigenvalues:   168.2271   172.4451   189.4348
      4  C    Isotropic =   143.5821   Anisotropy =    26.3671
   XX=   149.2378   YX=    -8.9540   ZX=    -8.5191
   XY=   -13.2244   YY=   132.9709   ZY=    13.8823
   XZ=     0.1998   YZ=     6.6420   ZZ=   148.5374
   Eigenvalues:   124.8727   144.7133   161.1602
      5  C    Isotropic =   167.5913   Anisotropy =    18.5113
   XX=   172.6669   YX=    -6.0346   ZX=     3.6433
   XY=    -5.0411   YY=   170.3307   ZY=    -4.3004
   XZ=     4.2619   YZ=    -9.3588   ZZ=   159.7761
   Eigenvalues:   156.3332   166.5084   179.9321
      6  C    Isotropic =   162.8642   Anisotropy =    14.9136
   XX=   166.5525   YX=     7.8361   ZX=     1.0421
   XY=     4.0591   YY=   167.0894   ZY=     1.0175
   XZ=    -0.8762   YZ=     0.9135   ZZ=   154.9507
   Eigenvalues:   154.8575   160.9285   172.8066
      7  C    Isotropic =   173.3119   Anisotropy =    34.2575
   XX=   186.9050   YX=     0.1405   ZX=   -15.2183
   XY=    -1.3339   YY=   171.3660   ZY=    -6.7074
   XZ=   -19.9605   YZ=    -5.6159   ZZ=   161.6647
   Eigenvalues:   151.0012   172.7843   196.1503
      8  O    Isotropic =   269.7721   Anisotropy =   108.8554
   XX=   253.7259   YX=    -3.3799   ZX=    46.8868
   XY=   -15.5657   YY=   245.0063   ZY=    38.9076
   XZ=    25.6904   YZ=    49.5395   ZZ=   310.5842
   Eigenvalues:   207.3965   259.5774   342.3424
      9  C    Isotropic =   167.0155   Anisotropy =    13.2654
   XX=   173.2638   YX=    -5.7957   ZX=    -3.8161
   XY=    -2.7275   YY=   166.6681   ZY=    -2.8934
   XZ=    -5.1018   YZ=    -3.8678   ZZ=   161.1144
   Eigenvalues:   157.3204   167.8669   175.8590
     10  C    Isotropic =   174.3324   Anisotropy =    29.5032
   XX=   173.5768   YX=   -15.0812   ZX=     3.6122
   XY=    -8.7986   YY=   182.9877   ZY=    -7.3823
   XZ=     1.7275   YZ=   -10.4525   ZZ=   166.4326
   Eigenvalues:   161.6681   167.3278   194.0012
     11  C    Isotropic =   173.7170   Anisotropy =    34.6386
   XX=   174.5280   YX=    18.1228   ZX=    -4.8502
   XY=    14.7633   YY=   184.0363   ZY=    -3.9165
   XZ=    -4.4112   YZ=     1.5336   ZZ=   162.5867
   Eigenvalues:   159.2032   165.1384   196.8094
     12  H    Isotropic =    29.8155   Anisotropy =     9.6608
   XX=    28.9868   YX=     1.2912   ZX=     2.6362
   XY=     1.4081   YY=    27.1719   ZY=     3.5500
   XZ=     3.0218   YZ=     3.5221   ZZ=    33.2878
   Eigenvalues:    25.5538    27.6367    36.2560
     13  H    Isotropic =    27.4234   Anisotropy =     6.7354
   XX=    29.7970   YX=     1.8154   ZX=    -2.9994
   XY=     0.6799   YY=    28.2470   ZY=    -0.0591
   XZ=    -3.2849   YZ=    -2.1904   ZZ=    24.2262
   Eigenvalues:    22.7617    27.5948    31.9137
     14  H    Isotropic =    29.3606   Anisotropy =     7.0084
   XX=    28.9967   YX=    -0.0629   ZX=    -2.4694
   XY=     0.1484   YY=    26.7054   ZY=    -0.1049
   XZ=    -3.2997   YZ=     0.3360   ZZ=    32.3796
   Eigenvalues:    26.6909    27.3580    34.0329
     15  H    Isotropic =    30.1954   Anisotropy =     8.2778
   XX=    31.2502   YX=    -1.4545   ZX=     1.9531
   XY=    -2.0199   YY=    30.2417   ZY=    -4.3279
   XZ=     1.8194   YZ=    -4.7731   ZZ=    29.0943
   Eigenvalues:    25.0686    29.8036    35.7139
     16  H    Isotropic =    30.7850   Anisotropy =     5.3437
   XX=    31.4588   YX=     1.3002   ZX=     0.6834
   XY=     1.8797   YY=    29.4165   ZY=     2.4335
   XZ=     0.9724   YZ=     3.1877   ZZ=    31.4798
   Eigenvalues:    27.2720    30.7357    34.3475
     17  H    Isotropic =    30.4001   Anisotropy =    10.0103
   XX=    29.8388   YX=     3.1404   ZX=     0.8492
   XY=     3.8012   YY=    35.2418   ZY=    -1.7412
   XZ=     0.3510   YZ=    -1.5312   ZZ=    26.1197
   Eigenvalues:    25.4137    28.7130    37.0736
     18  H    Isotropic =    29.8875   Anisotropy =     6.7229
   XX=    30.8320   YX=    -1.3258   ZX=    -0.9050
   XY=    -2.1308   YY=    30.0644   ZY=     4.1790
   XZ=    -0.5513   YZ=     3.7980   ZZ=    28.7662
   Eigenvalues:    25.3120    29.9811    34.3695
     19  H    Isotropic =    29.9571   Anisotropy =     8.6273
   XX=    29.4210   YX=    -1.6576   ZX=     2.1880
   XY=    -2.1498   YY=    31.7200   ZY=    -3.3993
   XZ=     3.1457   YZ=    -3.9195   ZZ=    28.7303
   Eigenvalues:    25.7521    28.4106    35.7087
     20  H    Isotropic =    29.8808   Anisotropy =     7.0634
   XX=    29.7771   YX=     0.2822   ZX=    -1.6902
   XY=     1.1520   YY=    26.0397   ZY=    -1.1529
   XZ=    -1.6956   YZ=    -0.7294   ZZ=    33.8255
   Eigenvalues:    25.8536    29.1991    34.5897
     21  H    Isotropic =    29.3225   Anisotropy =     4.6938
   XX=    30.8245   YX=     0.8539   ZX=    -1.8849
   XY=     1.1825   YY=    26.6881   ZY=     3.1901
   XZ=    -0.5064   YZ=     3.0950   ZZ=    30.4548
   Eigenvalues:    24.5583    30.9574    32.4517
     22  H    Isotropic =    30.5683   Anisotropy =     9.9419
   XX=    35.2235   YX=    -3.8078   ZX=     1.8023
   XY=    -3.0225   YY=    29.3311   ZY=    -2.1472
   XZ=     1.1438   YZ=    -1.1128   ZZ=    27.1503
   Eigenvalues:    26.2621    28.2466    37.1962
     23  H    Isotropic =    30.8705   Anisotropy =    11.0828
   XX=    34.3948   YX=     5.0451   ZX=    -2.1861
   XY=     4.0669   YY=    31.4480   ZY=    -0.9157
   XZ=    -1.9240   YZ=    -1.9757   ZZ=    26.7687
   Eigenvalues:    26.2186    28.1338    38.2590
     24  H    Isotropic =    31.2518   Anisotropy =    17.4790
   XX=    29.7838   YX=     1.6801   ZX=     3.2962
   XY=     1.3460   YY=    28.4915   ZY=     8.7015
   XZ=     5.1408   YZ=     8.9160   ZZ=    35.4801
   Eigenvalues:    22.3164    28.5345    42.9045
     25  H    Isotropic =    29.8205   Anisotropy =     5.3487
   XX=    30.8264   YX=     0.4171   ZX=     1.3847
   XY=     0.7071   YY=    26.6633   ZY=     1.2183
   XZ=     1.7774   YZ=     1.4874   ZZ=    31.9720
   Eigenvalues:    26.3306    29.7447    33.3864
     26  H    Isotropic =    31.0374   Anisotropy =     8.7553
   XX=    31.4052   YX=    -1.4426   ZX=     3.8248
   XY=    -1.6987   YY=    28.2567   ZY=    -1.9638
   XZ=     3.6066   YZ=    -1.3228   ZZ=    33.4501
   Eigenvalues:    27.6026    28.6352    36.8742
     27  H    Isotropic =    30.2587   Anisotropy =     8.2345
   XX=    30.4347   YX=    -0.3325   ZX=    -0.3335
   XY=     0.7784   YY=    35.6876   ZY=    -0.5981
   XZ=    -0.6628   YZ=    -0.8686   ZZ=    24.6539
   Eigenvalues:    24.5657    30.4620    35.7484
     28  H    Isotropic =    30.7736   Anisotropy =    10.3841
   XX=    34.2070   YX=    -3.4478   ZX=    -3.8780
   XY=    -4.1920   YY=    29.9178   ZY=     0.9234
   XZ=    -3.1418   YZ=     0.6593   ZZ=    28.1960
   Eigenvalues:    26.2276    28.3968    37.6963
     29  H    Isotropic =    31.1060   Anisotropy =     8.6894
   XX=    31.9848   YX=     3.2374   ZX=     3.1182
   XY=     3.4637   YY=    30.5341   ZY=     2.9125
   XZ=     2.3295   YZ=     2.0286   ZZ=    30.7992
   Eigenvalues:    27.7885    28.6306    36.8989
     30  H    Isotropic =    30.3110   Anisotropy =     8.7840
   XX=    30.3673   YX=     0.6720   ZX=    -0.5696
   XY=    -0.7003   YY=    34.0819   ZY=    -4.6752
   XZ=    -0.6056   YZ=    -4.2868   ZZ=    26.4838
   Eigenvalues:    24.3597    30.4062    36.1670
     31  H    Isotropic =    30.6972   Anisotropy =    10.6010
   XX=    33.9811   YX=     0.6160   ZX=    -5.3137
   XY=     1.9665   YY=    28.3472   ZY=    -0.9650
   XZ=    -5.1981   YZ=    -0.4604   ZZ=    29.7633
   Eigenvalues:    26.1999    28.1271    37.7645
 End of Minotr Frequency-dependent properties file   721 does not exist.
 End of Minotr Frequency-dependent properties file   722 does not exist.

 **********************************************************************

            Population analysis using the SCF density.

 **********************************************************************

 Orbital symmetries:
       Occupied  (A) (A) (A) (A) (A) (A) (A) (A) (A) (A) (A) (A)
                 (A) (A) (A) (A) (A) (A) (A) (A) (A) (A) (A) (A)
                 (A) (A) (A) (A) (A) (A) (A) (A) (A) (A) (A) (A)
                 (A) (A) (A) (A) (A) (A) (A) (A)
       Virtual   (A) (A) (A) (A) (A) (A) (A) (A) (A) (A) (A) (A)
                 (A) (A) (A) (A) (A) (A) (A) (A) (A) (A) (A) (A)
                 (A) (A) (A) (A) (A) (A) (A) (A) (A) (A) (A) (A)
                 (A) (A) (A) (A) (A) (A) (A) (A) (A) (A) (A) (A)
                 (A) (A) (A) (A) (A) (A) (A) (A) (A) (A) (A) (A)
                 (A) (A) (A) (A) (A) (A) (A) (A) (A) (A) (A) (A)
                 (A) (A) (A) (A) (A) (A) (A) (A) (A) (A) (A) (A)
                 (A) (A) (A) (A) (A) (A) (A) (A) (A) (A) (A) (A)
                 (A) (A) (A) (A) (A) (A) (A) (A) (A) (A) (A) (A)
                 (A) (A) (A) (A) (A) (A) (A) (A) (A) (A) (A) (A)
                 (A) (A) (A) (A) (A) (A) (A) (A) (A) (A) (A) (A)
                 (A) (A) (A) (A) (A) (A) (A) (A) (A) (A) (A) (A)
                 (A) (A) (A) (A) (A) (A) (A) (A) (A) (A) (A) (A)
                 (A) (A) (A) (A) (A) (A) (A) (A) (A) (A) (A) (A)
                 (A) (A) (A) (A) (A) (A) (A) (A) (A) (A) (A) (A)
                 (A) (A) (A) (A) (A) (A) (A) (A) (A) (A) (A) (A)
                 (A) (A) (A) (A) (A) (A) (A) (A) (A) (A) (A) (A)
                 (A) (A) (A) (A) (A) (A) (A) (A) (A) (A) (A) (A)
                 (A) (A) (A) (A) (A) (A) (A) (A) (A) (A) (A) (A)
                 (A) (A) (A) (A) (A) (A) (A) (A) (A) (A) (A) (A)
                 (A) (A) (A) (A) (A) (A) (A) (A) (A) (A) (A) (A)
                 (A) (A) (A) (A) (A) (A) (A) (A) (A) (A) (A) (A)
                 (A)
 The electronic state is 1-A.
 Alpha  occ. eigenvalues --  -19.24324 -10.29398 -10.25522 -10.25020 -10.24585
 Alpha  occ. eigenvalues --  -10.23807 -10.23618 -10.23581 -10.23520 -10.23467
 Alpha  occ. eigenvalues --  -10.22152  -1.04848  -0.85777  -0.81858  -0.76196
 Alpha  occ. eigenvalues --   -0.75491  -0.70317  -0.69200  -0.62993  -0.62131
 Alpha  occ. eigenvalues --   -0.58483  -0.54009  -0.50903  -0.50624  -0.47542
 Alpha  occ. eigenvalues --   -0.45830  -0.44119  -0.43475  -0.42093  -0.41151
 Alpha  occ. eigenvalues --   -0.40524  -0.39538  -0.39457  -0.38155  -0.37220
 Alpha  occ. eigenvalues --   -0.36386  -0.35666  -0.34438  -0.33593  -0.33184
 Alpha  occ. eigenvalues --   -0.31405  -0.30944  -0.29801  -0.27458
 Alpha virt. eigenvalues --    0.00519   0.01666   0.02092   0.02349   0.04021
 Alpha virt. eigenvalues --    0.04218   0.04488   0.05006   0.05192   0.07048
 Alpha virt. eigenvalues --    0.07211   0.07359   0.08240   0.08670   0.09152
 Alpha virt. eigenvalues --    0.09591   0.10382   0.11012   0.11330   0.11835
 Alpha virt. eigenvalues --    0.11999   0.12750   0.13516   0.14168   0.15114
 Alpha virt. eigenvalues --    0.15406   0.16046   0.16620   0.16934   0.17010
 Alpha virt. eigenvalues --    0.17988   0.18417   0.18886   0.18973   0.19564
 Alpha virt. eigenvalues --    0.20199   0.20643   0.21358   0.21479   0.21902
 Alpha virt. eigenvalues --    0.22563   0.22861   0.23215   0.24083   0.24689
 Alpha virt. eigenvalues --    0.24942   0.25691   0.26452   0.27168   0.27478
 Alpha virt. eigenvalues --    0.28274   0.28466   0.29232   0.29596   0.30035
 Alpha virt. eigenvalues --    0.30858   0.30998   0.32012   0.32840   0.33045
 Alpha virt. eigenvalues --    0.33959   0.35129   0.35968   0.37095   0.37277
 Alpha virt. eigenvalues --    0.37600   0.38666   0.38911   0.40746   0.41967
 Alpha virt. eigenvalues --    0.43597   0.44436   0.45767   0.50805   0.54254
 Alpha virt. eigenvalues --    0.61909   0.63935   0.64396   0.66129   0.66905
 Alpha virt. eigenvalues --    0.67288   0.69676   0.70707   0.71658   0.72046
 Alpha virt. eigenvalues --    0.72950   0.73628   0.74505   0.77241   0.77757
 Alpha virt. eigenvalues --    0.78873   0.80191   0.82850   0.83395   0.84958
 Alpha virt. eigenvalues --    0.86066   0.86767   0.89966   0.90878   0.94322
 Alpha virt. eigenvalues --    0.95704   0.96411   0.98627   1.00094   1.00853
 Alpha virt. eigenvalues --    1.01435   1.02035   1.03067   1.04219   1.04972
 Alpha virt. eigenvalues --    1.06880   1.07239   1.09312   1.09947   1.10689
 Alpha virt. eigenvalues --    1.12005   1.14070   1.15403   1.16297   1.16825
 Alpha virt. eigenvalues --    1.17160   1.18098   1.19356   1.21128   1.22923
 Alpha virt. eigenvalues --    1.23642   1.26800   1.27689   1.28868   1.30520
 Alpha virt. eigenvalues --    1.37612   1.38865   1.41477   1.42470   1.44798
 Alpha virt. eigenvalues --    1.47252   1.49881   1.52592   1.55258   1.56986
 Alpha virt. eigenvalues --    1.60495   1.61195   1.63223   1.64664   1.66684
 Alpha virt. eigenvalues --    1.70194   1.73451   1.75169   1.78438   1.80718
 Alpha virt. eigenvalues --    1.81779   1.83120   1.83926   1.87614   1.88969
 Alpha virt. eigenvalues --    1.89485   1.89643   1.91051   1.92494   1.93797
 Alpha virt. eigenvalues --    1.95344   1.98479   2.00496   2.01627   2.04605
 Alpha virt. eigenvalues --    2.05701   2.06073   2.07283   2.08610   2.09508
 Alpha virt. eigenvalues --    2.10124   2.12925   2.13012   2.15119   2.16142
 Alpha virt. eigenvalues --    2.17712   2.18052   2.18459   2.18770   2.20016
 Alpha virt. eigenvalues --    2.21743   2.23260   2.24185   2.28180   2.30001
 Alpha virt. eigenvalues --    2.32745   2.33695   2.36176   2.37083   2.38747
 Alpha virt. eigenvalues --    2.39612   2.41448   2.42394   2.44030   2.45974
 Alpha virt. eigenvalues --    2.48167   2.50096   2.52023   2.54549   2.55181
 Alpha virt. eigenvalues --    2.56555   2.57076   2.59598   2.65205   2.66301
 Alpha virt. eigenvalues --    2.67618   2.68965   2.70242   2.70813   2.71536
 Alpha virt. eigenvalues --    2.73913   2.74420   2.76036   2.76879   2.78085
 Alpha virt. eigenvalues --    2.80622   2.81717   2.82345   2.84866   2.87135
 Alpha virt. eigenvalues --    2.87871   2.89415   2.90315   2.91544   2.92144
 Alpha virt. eigenvalues --    2.92555   2.93319   2.94684   2.96285   2.97462
 Alpha virt. eigenvalues --    2.99760   3.02768   3.05805   3.14135   3.29092
 Alpha virt. eigenvalues --    3.30127   3.31285   3.37988   3.38160   3.39033
 Alpha virt. eigenvalues --    3.41043   3.44701   3.48033   3.49043   3.50378
 Alpha virt. eigenvalues --    3.51863   3.53471   3.54655   3.55858   3.56287
 Alpha virt. eigenvalues --    3.58075   3.60340   3.61467   3.63085   4.36759
 Alpha virt. eigenvalues --    4.44898   4.45688   4.55098   4.58749   4.61534
 Alpha virt. eigenvalues --    4.69974   4.76468   4.81187   4.90248   4.96389
          Condensed to atoms (all electrons):
              1          2          3          4          5          6
     1  C    6.261793  -0.029174  -0.009597  -0.272258  -0.101333  -0.198216
     2  C   -0.029174   7.425407   0.157548  -1.922527   0.022184  -0.208104
     3  C   -0.009597   0.157548   6.484478  -1.072128   0.165170  -0.081257
     4  C   -0.272258  -1.922527  -1.072128   9.878474  -0.164692  -0.023968
     5  C   -0.101333   0.022184   0.165170  -0.164692   5.723289   0.111401
     6  C   -0.198216  -0.208104  -0.081257  -0.023968   0.111401   6.232559
     7  C    0.101992  -0.047162   0.016447   0.058629  -0.082843  -0.019685
     8  O    0.022237   0.015543  -0.067032   0.284617  -0.054906  -0.172153
     9  C   -0.062566   0.206530   0.269902  -1.205067   0.089005   0.115177
    10  C    0.014307  -0.161013  -0.121362   0.379614   0.005437   0.004222
    11  C    0.027638   0.040983  -0.005614   0.057498  -0.043156  -0.025689
    12  H    0.260677   0.039447   0.022935  -0.020325   0.010676  -0.025067
    13  H    0.026126   0.142224  -0.005920   0.136869  -0.013948   0.003645
    14  H    0.030601  -0.022799   0.445771  -0.056469  -0.072563  -0.026348
    15  H    0.025796   0.000801   0.335061   0.013450  -0.013234  -0.003832
    16  H    0.006830   0.147864   0.027618   0.105682   0.014958  -0.017198
    17  H   -0.082259  -0.019569  -0.071039   0.055961   0.403032   0.038206
    18  H    0.018424  -0.018431  -0.031240   0.004482   0.356628  -0.032517
    19  H   -0.101472  -0.089953  -0.012137   0.069028   0.030801   0.433810
    20  H    0.033437  -0.033307  -0.005582   0.030235  -0.042376   0.330949
    21  H   -0.090298   0.029131  -0.002128  -0.003181   0.001087  -0.013747
    22  H   -0.090808  -0.007705  -0.009164   0.008785   0.030878   0.008554
    23  H   -0.089899  -0.012081   0.007394   0.003132  -0.006516   0.032171
    24  H   -0.005054   0.142415  -0.026855  -0.133287   0.010604   0.026771
    25  H    0.017733   0.067656  -0.027944  -0.045037   0.002066  -0.029798
    26  H    0.002048   0.012297  -0.005378  -0.003346  -0.000194  -0.003257
    27  H   -0.000509   0.000448  -0.004608  -0.013284   0.004209   0.000458
    28  H   -0.000260  -0.002543  -0.009338   0.049354   0.001275   0.000489
    29  H    0.000985   0.017780   0.000374  -0.018044  -0.000249  -0.001337
    30  H    0.000246  -0.039439   0.007132   0.020148  -0.001125   0.010290
    31  H    0.000044   0.008304  -0.004847   0.029336  -0.000400  -0.002532
              7          8          9         10         11         12
     1  C    0.101992   0.022237  -0.062566   0.014307   0.027638   0.260677
     2  C   -0.047162   0.015543   0.206530  -0.161013   0.040983   0.039447
     3  C    0.016447  -0.067032   0.269902  -0.121362  -0.005614   0.022935
     4  C    0.058629   0.284617  -1.205067   0.379614   0.057498  -0.020325
     5  C   -0.082843  -0.054906   0.089005   0.005437  -0.043156   0.010676
     6  C   -0.019685  -0.172153   0.115177   0.004222  -0.025689  -0.025067
     7  C    5.375526   0.021801  -0.008291  -0.000416  -0.002119  -0.002700
     8  O    0.021801   8.352698  -0.032168   0.005598   0.004902  -0.001149
     9  C   -0.008291  -0.032168   7.087045  -0.214943  -0.197409   0.003871
    10  C   -0.000416   0.005598  -0.214943   5.562655  -0.109777  -0.001531
    11  C   -0.002119   0.004902  -0.197409  -0.109777   5.570314  -0.000363
    12  H   -0.002700  -0.001149   0.003871  -0.001531  -0.000363   0.585233
    13  H   -0.003963  -0.036519  -0.005857   0.011392  -0.000003  -0.000145
    14  H    0.006203   0.006007   0.020453  -0.000493  -0.000978  -0.000048
    15  H   -0.001423  -0.000414  -0.050859   0.018685  -0.001018  -0.000126
    16  H   -0.003025  -0.023270   0.026580  -0.025426   0.000051   0.000010
    17  H    0.005353   0.000514  -0.010167   0.003275   0.000226  -0.001645
    18  H    0.009747   0.000281   0.021264  -0.013499   0.005451  -0.006694
    19  H    0.005427  -0.000541  -0.006166   0.001145  -0.002473  -0.001101
    20  H    0.011374   0.010223  -0.013422   0.001976   0.000275  -0.007432
    21  H    0.451150  -0.012725  -0.001653  -0.000122   0.000008   0.004681
    22  H    0.415318   0.000895  -0.000803   0.000203  -0.000220  -0.003679
    23  H    0.417903   0.000821  -0.000124  -0.000051   0.000107  -0.004130
    24  H   -0.005125   0.197629   0.027858  -0.002141  -0.001691   0.000012
    25  H   -0.001832  -0.000916   0.283134  -0.013117   0.015652   0.000002
    26  H   -0.000048  -0.000079  -0.100562   0.448806  -0.003602   0.000000
    27  H    0.000128  -0.000010  -0.051893   0.431041  -0.004867   0.000001
    28  H   -0.000067   0.000011  -0.131783   0.446212   0.004051   0.000000
    29  H   -0.000062  -0.000160  -0.108166  -0.007562   0.464193   0.000000
    30  H   -0.000089   0.000428  -0.070171   0.002281   0.429069   0.000000
    31  H   -0.000028  -0.000036  -0.120622  -0.005455   0.455516   0.000000
             13         14         15         16         17         18
     1  C    0.026126   0.030601   0.025796   0.006830  -0.082259   0.018424
     2  C    0.142224  -0.022799   0.000801   0.147864  -0.019569  -0.018431
     3  C   -0.005920   0.445771   0.335061   0.027618  -0.071039  -0.031240
     4  C    0.136869  -0.056469   0.013450   0.105682   0.055961   0.004482
     5  C   -0.013948  -0.072563  -0.013234   0.014958   0.403032   0.356628
     6  C    0.003645  -0.026348  -0.003832  -0.017198   0.038206  -0.032517
     7  C   -0.003963   0.006203  -0.001423  -0.003025   0.005353   0.009747
     8  O   -0.036519   0.006007  -0.000414  -0.023270   0.000514   0.000281
     9  C   -0.005857   0.020453  -0.050859   0.026580  -0.010167   0.021264
    10  C    0.011392  -0.000493   0.018685  -0.025426   0.003275  -0.013499
    11  C   -0.000003  -0.000978  -0.001018   0.000051   0.000226   0.005451
    12  H   -0.000145  -0.000048  -0.000126   0.000010  -0.001645  -0.006694
    13  H    0.644208  -0.000024  -0.000120  -0.005846   0.000015  -0.000041
    14  H   -0.000024   0.531205  -0.029072  -0.005368  -0.003289   0.004619
    15  H   -0.000120  -0.029072   0.563023  -0.002625  -0.002912  -0.003814
    16  H   -0.005846  -0.005368  -0.002625   0.597098  -0.000119  -0.000069
    17  H    0.000015  -0.003289  -0.002912  -0.000119   0.555521  -0.028196
    18  H   -0.000041   0.004619  -0.003814  -0.000069  -0.028196   0.555580
    19  H   -0.004111  -0.000019   0.000012  -0.000139  -0.000123  -0.000054
    20  H   -0.003923   0.000085  -0.000016  -0.000060  -0.000045   0.002126
    21  H   -0.000085  -0.000729  -0.000034  -0.000003  -0.000128  -0.000083
    22  H   -0.000006  -0.000050   0.000003  -0.000001   0.000098  -0.000138
    23  H    0.000006   0.000052  -0.000013  -0.000001   0.003255   0.000074
    24  H   -0.007584   0.000053  -0.000033   0.007890  -0.000005  -0.000003
    25  H   -0.001151  -0.000095   0.000097   0.005490   0.000007  -0.001214
    26  H   -0.000014  -0.000039   0.000057   0.003366   0.000000   0.000001
    27  H    0.000000   0.000117  -0.001015  -0.000005  -0.000016   0.001086
    28  H   -0.000002  -0.000003   0.000126  -0.000069   0.000000  -0.000032
    29  H   -0.000068  -0.000005   0.000007   0.004124   0.000000  -0.000002
    30  H    0.002936  -0.000001   0.000000  -0.000333   0.000000   0.000003
    31  H   -0.000046   0.000002  -0.000004   0.000031   0.000000   0.000003
             19         20         21         22         23         24
     1  C   -0.101472   0.033437  -0.090298  -0.090808  -0.089899  -0.005054
     2  C   -0.089953  -0.033307   0.029131  -0.007705  -0.012081   0.142415
     3  C   -0.012137  -0.005582  -0.002128  -0.009164   0.007394  -0.026855
     4  C    0.069028   0.030235  -0.003181   0.008785   0.003132  -0.133287
     5  C    0.030801  -0.042376   0.001087   0.030878  -0.006516   0.010604
     6  C    0.433810   0.330949  -0.013747   0.008554   0.032171   0.026771
     7  C    0.005427   0.011374   0.451150   0.415318   0.417903  -0.005125
     8  O   -0.000541   0.010223  -0.012725   0.000895   0.000821   0.197629
     9  C   -0.006166  -0.013422  -0.001653  -0.000803  -0.000124   0.027858
    10  C    0.001145   0.001976  -0.000122   0.000203  -0.000051  -0.002141
    11  C   -0.002473   0.000275   0.000008  -0.000220   0.000107  -0.001691
    12  H   -0.001101  -0.007432   0.004681  -0.003679  -0.004130   0.000012
    13  H   -0.004111  -0.003923  -0.000085  -0.000006   0.000006  -0.007584
    14  H   -0.000019   0.000085  -0.000729  -0.000050   0.000052   0.000053
    15  H    0.000012  -0.000016  -0.000034   0.000003  -0.000013  -0.000033
    16  H   -0.000139  -0.000060  -0.000003  -0.000001  -0.000001   0.007890
    17  H   -0.000123  -0.000045  -0.000128   0.000098   0.003255  -0.000005
    18  H   -0.000054   0.002126  -0.000083  -0.000138   0.000074  -0.000003
    19  H    0.533426  -0.025789   0.000092   0.002989   0.000098  -0.000123
    20  H   -0.025789   0.550586  -0.000092   0.000048  -0.000140  -0.000293
    21  H    0.000092  -0.000092   0.504929  -0.025625  -0.028071   0.000393
    22  H    0.002989   0.000048  -0.025625   0.539912  -0.026426   0.000004
    23  H    0.000098  -0.000140  -0.028071  -0.026426   0.550415  -0.000007
    24  H   -0.000123  -0.000293   0.000393   0.000004  -0.000007   0.414335
    25  H   -0.000062   0.000249  -0.000001   0.000000   0.000000   0.000022
    26  H    0.000000  -0.000001   0.000000   0.000000   0.000000   0.000002
    27  H    0.000000   0.000011   0.000000   0.000000   0.000000   0.000000
    28  H    0.000000   0.000000   0.000000   0.000000   0.000000   0.000000
    29  H    0.000000  -0.000005   0.000000   0.000000   0.000000   0.000025
    30  H    0.000000   0.000243   0.000000   0.000000   0.000000   0.000005
    31  H    0.000000  -0.000013   0.000000   0.000000   0.000000  -0.000001
             25         26         27         28         29         30
     1  C    0.017733   0.002048  -0.000509  -0.000260   0.000985   0.000246
     2  C    0.067656   0.012297   0.000448  -0.002543   0.017780  -0.039439
     3  C   -0.027944  -0.005378  -0.004608  -0.009338   0.000374   0.007132
     4  C   -0.045037  -0.003346  -0.013284   0.049354  -0.018044   0.020148
     5  C    0.002066  -0.000194   0.004209   0.001275  -0.000249  -0.001125
     6  C   -0.029798  -0.003257   0.000458   0.000489  -0.001337   0.010290
     7  C   -0.001832  -0.000048   0.000128  -0.000067  -0.000062  -0.000089
     8  O   -0.000916  -0.000079  -0.000010   0.000011  -0.000160   0.000428
     9  C    0.283134  -0.100562  -0.051893  -0.131783  -0.108166  -0.070171
    10  C   -0.013117   0.448806   0.431041   0.446212  -0.007562   0.002281
    11  C    0.015652  -0.003602  -0.004867   0.004051   0.464193   0.429069
    12  H    0.000002   0.000000   0.000001   0.000000   0.000000   0.000000
    13  H   -0.001151  -0.000014   0.000000  -0.000002  -0.000068   0.002936
    14  H   -0.000095  -0.000039   0.000117  -0.000003  -0.000005  -0.000001
    15  H    0.000097   0.000057  -0.001015   0.000126   0.000007   0.000000
    16  H    0.005490   0.003366  -0.000005  -0.000069   0.004124  -0.000333
    17  H    0.000007   0.000000  -0.000016   0.000000   0.000000   0.000000
    18  H   -0.001214   0.000001   0.001086  -0.000032  -0.000002   0.000003
    19  H   -0.000062   0.000000   0.000000   0.000000   0.000000   0.000000
    20  H    0.000249  -0.000001   0.000011   0.000000  -0.000005   0.000243
    21  H   -0.000001   0.000000   0.000000   0.000000   0.000000   0.000000
    22  H    0.000000   0.000000   0.000000   0.000000   0.000000   0.000000
    23  H    0.000000   0.000000   0.000000   0.000000   0.000000   0.000000
    24  H    0.000022   0.000002   0.000000   0.000000   0.000025   0.000005
    25  H    0.577605   0.005007  -0.004294  -0.002693   0.004994  -0.003980
    26  H    0.005007   0.529238  -0.027891  -0.027516   0.002914  -0.000036
    27  H   -0.004294  -0.027891   0.531493  -0.025896   0.000003  -0.000140
    28  H   -0.002693  -0.027516  -0.025896   0.532770  -0.000150   0.000126
    29  H    0.004994   0.002914   0.000003  -0.000150   0.530933  -0.029020
    30  H   -0.003980  -0.000036  -0.000140   0.000126  -0.029020   0.541187
    31  H   -0.003432  -0.000078   0.000095   0.002981  -0.027500  -0.025847
             31
     1  C    0.000044
     2  C    0.008304
     3  C   -0.004847
     4  C    0.029336
     5  C   -0.000400
     6  C   -0.002532
     7  C   -0.000028
     8  O   -0.000036
     9  C   -0.120622
    10  C   -0.005455
    11  C    0.455516
    12  H    0.000000
    13  H   -0.000046
    14  H    0.000002
    15  H   -0.000004
    16  H    0.000031
    17  H    0.000000
    18  H    0.000003
    19  H    0.000000
    20  H   -0.000013
    21  H    0.000000
    22  H    0.000000
    23  H    0.000000
    24  H   -0.000001
    25  H   -0.003432
    26  H   -0.000078
    27  H    0.000095
    28  H    0.002981
    29  H   -0.027500
    30  H   -0.025847
    31  H    0.528340
 Mulliken atomic charges:
              1
     1  C    0.282789
     2  C    0.137248
     3  C   -0.366660
     4  C   -0.231681
     5  C   -0.385165
     6  C   -0.463995
     7  C   -0.718119
     8  O   -0.522128
     9  C    0.241873
    10  C   -0.659940
    11  C   -0.676956
    12  H    0.148590
    13  H    0.121959
    14  H    0.173226
    15  H    0.153448
    16  H    0.135963
    17  H    0.154048
    18  H    0.156259
    19  H    0.167438
    20  H    0.160680
    21  H    0.187236
    22  H    0.156939
    23  H    0.152033
    24  H    0.354184
    25  H    0.155855
    26  H    0.168303
    27  H    0.165339
    28  H    0.162957
    29  H    0.165999
    30  H    0.156087
    31  H    0.166191
 Sum of Mulliken atomic charges =   0.00000
 Mulliken charges with hydrogens summed into heavy atoms:
              1
     1  C    0.431379
     2  C    0.259208
     3  C   -0.039985
     4  C   -0.095718
     5  C   -0.074859
     6  C   -0.135878
     7  C   -0.221910
     8  O   -0.167944
     9  C    0.397728
    10  C   -0.163340
    11  C   -0.188679
 Sum of Mulliken charges with hydrogens summed into heavy atoms =   0.00000
 Electronic spatial extent (au):  <R**2>=           2007.1213
 Charge=              0.0000 electrons
 Dipole moment (field-independent basis, Debye):
    X=              1.8982    Y=             -0.1830    Z=             -0.0715  Tot=              1.9083
 Quadrupole moment (field-independent basis, Debye-Ang):
   XX=            -75.5764   YY=            -72.2882   ZZ=            -69.3389
   XY=              3.1520   XZ=              1.8023   YZ=              1.3477
 Traceless Quadrupole moment (field-independent basis, Debye-Ang):
   XX=             -3.1752   YY=              0.1129   ZZ=              3.0623
   XY=              3.1520   XZ=              1.8023   YZ=              1.3477
 Octapole moment (field-independent basis, Debye-Ang**2):
  XXX=              3.3364  YYY=              8.0358  ZZZ=              9.4467  XYY=              3.4529
  XXY=             -3.4257  XXZ=             -4.4914  XZZ=              0.5779  YZZ=              9.1048
  YYZ=              5.5170  XYZ=              4.0490
 Hexadecapole moment (field-independent basis, Debye-Ang**3):
 XXXX=          -1778.8759 YYYY=           -673.4662 ZZZZ=           -342.3379 XXXY=             -5.4619
 XXXZ=             -0.3307 YYYX=              9.6431 YYYZ=             17.5636 ZZZX=             -4.2078
 ZZZY=             26.9585 XXYY=           -419.4125 XXZZ=           -348.0659 YYZZ=           -156.3905
 XXYZ=             -1.5212 YYXZ=              3.4815 ZZXY=             -3.3344
 N-N= 7.015366243857D+02 E-N=-2.488516393368D+03  KE= 4.636912555401D+02
 1\1\GINC-COMPUTE-10-6\SP\RmPW1PW91\6-31+G(d,p)\C10H20O1\ASAROTTI.IQUIR
 \19-Sep-2024\0\\# mPW1PW91/6-31+G** nmr scrf=(pcm,solvent=benzene)\\co
 mment\\0,1\C,0,-1.885489,-0.595302,-0.792943\C,0,-0.226343,1.259624,-0
 .020517\C,0,-0.128108,-1.021395,1.022885\C,0,0.722509,0.192432,0.58620
 1\C,0,-0.934869,-1.62239,-0.138643\C,0,-1.113207,0.698809,-1.141343\C,
 0,-3.144509,-0.33688,0.052148\O,0,-1.097657,1.797555,0.985386\C,0,1.92
 7414,-0.147141,-0.340902\C,0,2.742857,-1.347174,0.171263\C,0,2.870496,
 1.058199,-0.515809\H,0,-2.228239,-1.025456,-1.745453\H,0,0.364951,2.08
 5037,-0.443006\H,0,-0.818461,-0.682156,1.803632\H,0,0.501266,-1.788809
 ,1.485872\H,0,1.160561,0.635937,1.497915\H,0,-1.512921,-2.485393,0.217
 473\H,0,-0.244269,-2.011109,-0.900707\H,0,-1.812392,1.486211,-1.448729
 \H,0,-0.465456,0.503302,-2.00661\H,0,-2.905584,0.115003,1.017608\H,0,-
 3.822044,0.350679,-0.468541\H,0,-3.689635,-1.273195,0.226602\H,0,-0.53
 7259,2.154804,1.69246\H,0,1.542859,-0.412924,-1.335609\H,0,3.088373,-1
 .179652,1.200158\H,0,2.169976,-2.279164,0.158253\H,0,3.630843,-1.49932
 2,-0.453402\H,0,3.291761,1.365504,0.450798\H,0,2.373018,1.928916,-0.95
 3875\H,0,3.709409,0.798661,-1.171959\\Version=AM64L-G09RevC.01\State=1
 -A\HF=-468.2771234\RMSD=6.775e-09\Dipole=0.7468087,-0.0720101,-0.02812
 77\Quadrupole=-2.3607026,0.0839627,2.2767399,2.3434289,1.3399961,1.001
 9876\PG=C01 [X(C10H20O1)]\\@


 "MATHEMATICS IS THE ART OF GIVING THE SAME NAME
 TO DIFFERENT THINGS."
                    - H. POINCARE
 Job cpu time:  0 days  0 hours 11 minutes 43.4 seconds.
 File lengths (MBytes):  RWF=    120 Int=      0 D2E=      0 Chk=      7 Scr=      1
 Normal termination of Gaussian 09 at Thu Sep 19 08:15:20 2024.
