 Entering Gaussian System, Link 0=g09
 Input=/home/asarotti.iquir/SCF2/01_Mentol08_OptB_NMR_benzene.gjc
 Output=/home/asarotti.iquir/SCF2/01_Mentol08_OptB_NMR_benzene.log
 Initial command:
 /opt/ohpc/pub/apps/software/Gaussian/09/EM64T.SSE4.2-enabled/g09/l1.exe /local/asarotti.iquir/Gau-531386.inp -scrdir=/local/asarotti.iquir/
 Entering Link 1 = /opt/ohpc/pub/apps/software/Gaussian/09/EM64T.SSE4.2-enabled/g09/l1.exe PID=    531389.
  
 Copyright (c) 1988,1990,1992,1993,1995,1998,2003,2009,2011,
            Gaussian, Inc.  All Rights Reserved.
  
 This is part of the Gaussian(R) 09 program.  It is based on
 the Gaussian(R) 03 system (copyright 2003, Gaussian, Inc.),
 the Gaussian(R) 98 system (copyright 1998, Gaussian, Inc.),
 the Gaussian(R) 94 system (copyright 1995, Gaussian, Inc.),
 the Gaussian 92(TM) system (copyright 1992, Gaussian, Inc.),
 the Gaussian 90(TM) system (copyright 1990, Gaussian, Inc.),
 the Gaussian 88(TM) system (copyright 1988, Gaussian, Inc.),
 the Gaussian 86(TM) system (copyright 1986, Carnegie Mellon
 University), and the Gaussian 82(TM) system (copyright 1983,
 Carnegie Mellon University). Gaussian is a federally registered
 trademark of Gaussian, Inc.
  
 This software contains proprietary and confidential information,
 including trade secrets, belonging to Gaussian, Inc.
  
 This software is provided under written license and may be
 used, copied, transmitted, or stored only in accord with that
 written license.
  
 The following legend is applicable only to US Government
 contracts under FAR:
  
                    RESTRICTED RIGHTS LEGEND
  
 Use, reproduction and disclosure by the US Government is
 subject to restrictions as set forth in subparagraphs (a)
 and (c) of the Commercial Computer Software - Restricted
 Rights clause in FAR 52.227-19.
  
 Gaussian, Inc.
 340 Quinnipiac St., Bldg. 40, Wallingford CT 06492
  
  
 ---------------------------------------------------------------
 Warning -- This program may not be used in any manner that
 competes with the business of Gaussian, Inc. or will provide
 assistance to any competitor of Gaussian, Inc.  The licensee
 of this program is prohibited from giving any competitor of
 Gaussian, Inc. access to this program.  By using this program,
 the user acknowledges that Gaussian, Inc. is engaged in the
 business of creating and licensing software in the field of
 computational chemistry and represents and warrants to the
 licensee that it is not a competitor of Gaussian, Inc. and that
 it will not use this program in any manner prohibited above.
 ---------------------------------------------------------------
  

 Cite this work as:
 Gaussian 09, Revision C.01,
 M. J. Frisch, G. W. Trucks, H. B. Schlegel, G. E. Scuseria, 
 M. A. Robb, J. R. Cheeseman, G. Scalmani, V. Barone, B. Mennucci, 
 G. A. Petersson, H. Nakatsuji, M. Caricato, X. Li, H. P. Hratchian, 
 A. F. Izmaylov, J. Bloino, G. Zheng, J. L. Sonnenberg, M. Hada, 
 M. Ehara, K. Toyota, R. Fukuda, J. Hasegawa, M. Ishida, T. Nakajima, 
 Y. Honda, O. Kitao, H. Nakai, T. Vreven, J. A. Montgomery, Jr., 
 J. E. Peralta, F. Ogliaro, M. Bearpark, J. J. Heyd, E. Brothers, 
 K. N. Kudin, V. N. Staroverov, T. Keith, R. Kobayashi, J. Normand, 
 K. Raghavachari, A. Rendell, J. C. Burant, S. S. Iyengar, J. Tomasi, 
 M. Cossi, N. Rega, J. M. Millam, M. Klene, J. E. Knox, J. B. Cross, 
 V. Bakken, C. Adamo, J. Jaramillo, R. Gomperts, R. E. Stratmann, 
 O. Yazyev, A. J. Austin, R. Cammi, C. Pomelli, J. W. Ochterski, 
 R. L. Martin, K. Morokuma, V. G. Zakrzewski, G. A. Voth, 
 P. Salvador, J. J. Dannenberg, S. Dapprich, A. D. Daniels, 
 O. Farkas, J. B. Foresman, J. V. Ortiz, J. Cioslowski, 
 and D. J. Fox, Gaussian, Inc., Wallingford CT, 2010.
 
 ******************************************
 Gaussian 09:  EM64L-G09RevC.01 23-Sep-2011
                19-Sep-2024 
 ******************************************
 %nprocshared=4
 Will use up to    4 processors via shared memory.
 %mem=100mw
 --------------------------------------------------
 # mPW1PW91/6-31+G** nmr scrf=(pcm,solvent=benzene)
 --------------------------------------------------
 1/38=1/1;
 2/12=2,17=6,18=5,40=1/2;
 3/5=1,6=6,7=111,11=2,16=1,25=1,30=1,70=2201,72=12,74=-7/1,2,8,3;
 4//1;
 5/5=2,38=5,53=12/2;
 8/6=1,10=90,11=11/1;
 10/13=100,45=16/2;
 6/7=2,8=2,9=2,10=2,28=1/1;
 99/9=1/99;
 -------
 comment
 -------
 Charge =  0 Multiplicity = 1
 Symbolic Z-Matrix:
 6                    -2.32903  -0.21318  -0.29602 
 6                    -0.08796   1.04309  -0.39927 
 6                    -0.10935  -1.45544  -0.14657 
 6                     0.68235  -0.16766   0.18835 
 6                    -1.57724  -1.41083   0.29944 
 6                    -1.5606    1.0729    0.03753 
 6                    -3.7855   -0.14718   0.17657 
 8                     0.51031   2.31469  -0.12362 
 6                     2.16892  -0.23614  -0.28363 
 6                     2.80854  -1.62362  -0.08685 
 6                     3.06168   0.81415   0.40316 
 1                    -2.33164  -0.32936  -1.39186 
 1                    -0.04602   0.96575  -1.49446 
 1                     0.37569  -2.31879   0.31908 
 1                    -0.06731  -1.62842  -1.23331 
 1                     0.68191  -0.05976   1.28827 
 1                    -1.62358  -1.35011   1.39807 
 1                    -2.07659  -2.34852   0.0208 
 1                    -1.59803   1.23657   1.12809 
 1                    -2.03656   1.94614  -0.42563 
 1                    -3.83991  -0.03146   1.26695 
 1                    -4.3134    0.70151  -0.27451 
 1                    -4.33092  -1.06103  -0.08812 
 1                     0.46968   2.44708   0.83778 
 1                     2.17267  -0.0246   -1.36454 
 1                     2.76967  -1.93547   0.96565 
 1                     2.32988  -2.40355  -0.68648 
 1                     3.86503  -1.59058  -0.37731 
 1                     3.08667   0.64812   1.48942 
 1                     2.70607   1.82744   0.21541 
 1                     4.09339   0.73488   0.03934 
 
                          Input orientation:                          
 ---------------------------------------------------------------------
 Center     Atomic      Atomic             Coordinates (Angstroms)
 Number     Number       Type             X           Y           Z
 ---------------------------------------------------------------------
      1          6           0       -2.329027   -0.213177   -0.296017
      2          6           0       -0.087962    1.043091   -0.399273
      3          6           0       -0.109348   -1.455438   -0.146568
      4          6           0        0.682345   -0.167656    0.188352
      5          6           0       -1.577243   -1.410826    0.299441
      6          6           0       -1.560597    1.072897    0.037534
      7          6           0       -3.785504   -0.147182    0.176566
      8          8           0        0.510307    2.314694   -0.123617
      9          6           0        2.168921   -0.236137   -0.283631
     10          6           0        2.808540   -1.623622   -0.086845
     11          6           0        3.061682    0.814150    0.403156
     12          1           0       -2.331642   -0.329360   -1.391863
     13          1           0       -0.046019    0.965747   -1.494456
     14          1           0        0.375688   -2.318786    0.319083
     15          1           0       -0.067311   -1.628415   -1.233308
     16          1           0        0.681906   -0.059761    1.288269
     17          1           0       -1.623577   -1.350107    1.398065
     18          1           0       -2.076590   -2.348525    0.020795
     19          1           0       -1.598030    1.236571    1.128088
     20          1           0       -2.036560    1.946144   -0.425626
     21          1           0       -3.839914   -0.031462    1.266954
     22          1           0       -4.313404    0.701506   -0.274505
     23          1           0       -4.330922   -1.061025   -0.088120
     24          1           0        0.469682    2.447077    0.837783
     25          1           0        2.172675   -0.024602   -1.364540
     26          1           0        2.769671   -1.935470    0.965649
     27          1           0        2.329882   -2.403549   -0.686483
     28          1           0        3.865028   -1.590581   -0.377314
     29          1           0        3.086669    0.648120    1.489423
     30          1           0        2.706070    1.827444    0.215411
     31          1           0        4.093389    0.734883    0.039344
 ---------------------------------------------------------------------
                    Distance matrix (angstroms):
                    1          2          3          4          5
     1  C    0.000000
     2  C    2.571234   0.000000
     3  C    2.548043   2.511367   0.000000
     4  C    3.050417   1.550672   1.548332   0.000000
     5  C    1.534312   2.954296   1.534806   2.581385   0.000000
     6  C    1.534838   1.536341   2.921043   2.567588   2.497549
     7  C    1.532650   3.926851   3.915364   4.467911   2.547216
     8  O    3.805479   1.432092   3.820785   2.507785   4.291427
     9  C    4.498024   2.596790   2.587661   1.561207   3.969082
    10  C    5.331764   3.949518   2.923341   2.591578   4.407901
    11  C    5.532087   3.258307   3.938103   2.582891   5.145960
    12  H    1.101991   2.811220   2.785211   3.406955   2.144574
    13  H    2.835180   1.098712   2.771813   2.155681   3.348255
    14  H    3.482445   3.468894   1.094285   2.176807   2.153768
    15  H    2.827856   2.798747   1.101223   2.171847   2.162535
    16  H    3.405762   2.157957   2.152383   1.105196   2.811923
    17  H    2.158746   3.363916   2.165612   2.859873   1.101276
    18  H    2.173432   3.954005   2.166946   3.520794   1.098303
    19  H    2.159676   2.156518   3.329840   2.838145   2.774130
    20  H    2.182889   2.147844   3.919538   3.498223   3.464959
    21  H    2.181439   4.243598   4.235903   4.651103   2.821065
    22  H    2.185145   4.241062   4.726824   5.091875   3.503989
    23  H    2.183953   4.746244   4.240361   5.099744   2.802733
    24  H    4.024329   1.952550   4.066183   2.702557   4.400356
    25  H    4.630618   2.679961   2.956074   2.157086   4.330397
    26  H    5.527641   4.347517   3.123493   2.843640   4.428854
    27  H    5.162909   4.219927   2.672128   2.911861   4.150081
    28  H    6.345878   4.750036   3.983362   3.531878   5.487132
    29  H    5.767096   3.715031   4.161244   2.852902   5.235207
    30  H    5.456913   2.966422   4.339922   2.841939   5.370309
    31  H    6.500670   4.215575   4.742897   3.531572   6.068590
                    6          7          8          9         10
     6  C    0.000000
     7  C    2.541286   0.000000
     8  O    2.420056   4.960336   0.000000
     9  C    3.965605   5.972844   3.046858   0.000000
    10  C    5.135761   6.762446   4.559996   1.540439   0.000000
    11  C    4.643931   6.918053   3.006433   1.540065   2.499383
    12  H    2.145696   2.146363   4.083643   4.635940   5.458906
    13  H    2.156947   4.244370   2.002088   2.795815   4.103012
    14  H    3.915608   4.695923   4.656527   2.813605   2.562577
    15  H    3.337968   4.243437   4.136806   2.800189   3.095952
    16  H    2.806434   4.604485   2.767834   2.170989   2.976436
    17  H    2.779561   2.759170   4.505524   4.295587   4.682246
    18  H    3.460153   2.791158   5.334651   4.751760   4.939794
    19  H    1.103403   2.757754   2.678470   4.283893   5.392089
    20  H    1.097095   2.793466   2.591056   4.740104   6.027686
    21  H    2.815381   1.097860   5.134448   6.209050   6.969195
    22  H    2.795218   1.096547   5.088549   6.549794   7.494233
    23  H    3.499159   1.096653   5.902054   6.554893   7.161594
    24  H    2.578915   5.027325   0.971322   3.368178   4.784954
    25  H    4.136138   6.155480   3.126606   1.101420   2.143290
    26  H    5.353773   6.840391   4.935091   2.193019   1.098410
    27  H    5.267419   6.575256   5.088171   2.210401   1.094059
    28  H    6.058351   7.805179   5.154579   2.172573   1.096189
    29  H    4.887279   7.041510   3.466556   2.183550   2.778991
    30  H    4.336523   6.785366   2.274583   2.189963   3.465792
    31  H    5.664081   7.929302   3.919290   2.179626   2.688737
                   11         12         13         14         15
    11  C    0.000000
    12  H    5.798073   0.000000
    13  H    3.644409   2.629049   0.000000
    14  H    4.127580   3.770250   3.775569   0.000000
    15  H    4.293569   2.615316   2.607360   1.755784   0.000000
    16  H    2.685234   4.041938   3.053703   2.477153   3.062736
    17  H    5.255997   3.054010   4.027226   2.469737   3.069779
    18  H    6.045705   2.477434   4.171763   2.470532   2.475588
    19  H    4.734647   3.056220   3.059382   4.146157   4.015898
    20  H    5.287756   2.489700   2.462890   4.956123   4.160260
    21  H    7.006656   3.071308   4.797234   4.888927   4.799386
    22  H    7.407011   2.497710   4.446198   5.609108   4.937321
    23  H    7.642528   2.496437   4.944288   4.888758   4.451041
    24  H    3.094158   4.530711   2.810627   4.794928   4.602979
    25  H    2.149090   4.514698   2.433161   3.365565   2.758075
    26  H    2.821716   5.844728   4.732577   2.509210   3.602522
    27  H    3.475116   5.150692   4.201176   2.199369   2.578058
    28  H    2.652778   6.404585   4.804072   3.631907   4.024605
    29  H    1.099166   6.214127   4.337990   4.185886   4.747996
    30  H    1.090171   5.710838   3.352635   4.757379   4.661908
    31  H    1.096842   6.667982   4.420468   4.819175   4.951388
                   16         17         18         19         20
    16  H    0.000000
    17  H    2.644296   0.000000
    18  H    3.801872   1.760378   0.000000
    19  H    2.627593   2.600854   3.782596   0.000000
    20  H    3.788291   3.789680   4.317994   1.763471   0.000000
    21  H    4.521959   2.582279   3.167176   2.579387   3.166676
    22  H    5.289131   3.773828   3.793841   3.102711   2.599227
    23  H    5.293904   3.101940   2.598371   3.771844   3.797509
    24  H    2.555820   4.371985   5.490789   2.413511   2.851032
    25  H    3.043193   4.878573   5.037462   4.692757   4.741630
    26  H    2.825089   4.453118   4.954756   5.400467   6.332648
    27  H    3.479772   4.591832   4.463212   5.654346   6.168767
    28  H    3.905105   5.773611   6.002982   6.332774   6.880371
    29  H    2.514845   5.117389   6.147845   4.735319   5.621366
    30  H    2.968132   5.499213   6.352199   4.439300   4.787229
    31  H    3.718802   6.235143   6.897564   5.816296   6.265750
                   21         22         23         24         25
    21  H    0.000000
    22  H    1.771308   0.000000
    23  H    1.771247   1.772445   0.000000
    24  H    4.989986   5.211729   6.017464   0.000000
    25  H    6.563234   6.616996   6.708218   3.722850   0.000000
    26  H    6.884958   7.659085   7.231425   4.951062   3.072068
    27  H    6.892684   7.344681   6.821050   5.414084   2.478682
    28  H    8.031227   8.494173   8.218130   5.413642   2.508179
    29  H    6.963395   7.607587   7.773704   3.241836   3.071326
    30  H    6.885578   7.126063   7.612795   2.402649   2.492154
    31  H    8.064218   8.412716   8.614554   4.086608   2.497369
                   26         27         28         29         30
    26  H    0.000000
    27  H    1.772584   0.000000
    28  H    1.767005   1.764419   0.000000
    29  H    2.655139   3.823608   3.017007   0.000000
    30  H    3.837502   4.342376   3.657513   1.777292   0.000000
    31  H    3.121066   3.672402   2.373507   1.767411   1.774639
                   31
    31  H    0.000000
 Stoichiometry    C10H20O
 Framework group  C1[X(C10H20O)]
 Deg. of freedom    87
 Full point group                 C1      NOp   1
 Largest Abelian subgroup         C1      NOp   1
 Largest concise Abelian subgroup C1      NOp   1
                         Standard orientation:                         
 ---------------------------------------------------------------------
 Center     Atomic      Atomic             Coordinates (Angstroms)
 Number     Number       Type             X           Y           Z
 ---------------------------------------------------------------------
      1          6           0       -2.329027   -0.213177   -0.296017
      2          6           0       -0.087962    1.043091   -0.399273
      3          6           0       -0.109348   -1.455438   -0.146568
      4          6           0        0.682345   -0.167656    0.188352
      5          6           0       -1.577243   -1.410826    0.299441
      6          6           0       -1.560597    1.072897    0.037534
      7          6           0       -3.785504   -0.147182    0.176566
      8          8           0        0.510307    2.314694   -0.123617
      9          6           0        2.168921   -0.236137   -0.283631
     10          6           0        2.808540   -1.623622   -0.086845
     11          6           0        3.061682    0.814150    0.403156
     12          1           0       -2.331642   -0.329360   -1.391863
     13          1           0       -0.046019    0.965747   -1.494456
     14          1           0        0.375688   -2.318786    0.319083
     15          1           0       -0.067311   -1.628415   -1.233308
     16          1           0        0.681906   -0.059761    1.288269
     17          1           0       -1.623577   -1.350107    1.398065
     18          1           0       -2.076590   -2.348525    0.020795
     19          1           0       -1.598030    1.236571    1.128088
     20          1           0       -2.036560    1.946144   -0.425626
     21          1           0       -3.839914   -0.031462    1.266954
     22          1           0       -4.313404    0.701506   -0.274505
     23          1           0       -4.330922   -1.061025   -0.088120
     24          1           0        0.469682    2.447077    0.837783
     25          1           0        2.172675   -0.024602   -1.364540
     26          1           0        2.769671   -1.935470    0.965649
     27          1           0        2.329882   -2.403549   -0.686483
     28          1           0        3.865028   -1.590581   -0.377314
     29          1           0        3.086669    0.648120    1.489423
     30          1           0        2.706070    1.827444    0.215411
     31          1           0        4.093389    0.734883    0.039344
 ---------------------------------------------------------------------
 Rotational constants (GHZ):      1.8272006      0.6860925      0.5273154
 Standard basis: 6-31+G(d,p) (6D, 7F)
 There are   309 symmetry adapted basis functions of A   symmetry.
 Integral buffers will be    131072 words long.
 Raffenetti 2 integral format.
 Two-electron integral symmetry is turned on.
   309 basis functions,   492 primitive gaussians,   309 cartesian basis functions
    44 alpha electrons       44 beta electrons
       nuclear repulsion energy       684.4230285815 Hartrees.
 NAtoms=   31 NActive=   31 NUniq=   31 SFac= 1.00D+00 NAtFMM=   60 NAOKFM=F Big=F
 ------------------------------------------------------------------------------
 Polarizable Continuum Model (PCM)
 =================================
 Model                : PCM.
 Atomic radii         : UFF (Universal Force Field).
 Polarization charges : Total charges.
 Charge compensation  : None.
 Solution method      : Matrix inversion.
 Cavity type          : Scaled VdW (van der Waals Surface) (Alpha=1.100).
 Cavity algorithm     : GePol (No added spheres)
                        Default sphere list used, NSphG=   31.
                        Lebedev-Laikov grids with approx.  5.0 points / Ang**2.
                        Smoothing algorithm: Karplus/York (Gamma=1.0000).
                        Polarization charges: spherical gaussians, with
                                              point-specific exponents (IZeta= 3).
                        Self-potential: point-specific (ISelfS= 7).
                        Self-field    : sphere-specific E.n sum rule (ISelfD= 2).
 Solvent              : Benzene, Eps=   2.270600 Eps(inf)=   2.253301
 ------------------------------------------------------------------------------
 One-electron integrals computed using PRISM.
 NBasis=   309 RedAO= T  NBF=   309
 NBsUse=   309 1.00D-06 NBFU=   309
 Harris functional with IExCor=  908 diagonalized for initial guess.
 ExpMin= 4.38D-02 ExpMax= 5.48D+03 ExpMxC= 8.25D+02 IAcc=2 IRadAn=         4 AccDes= 0.00D+00
 HarFok:  IExCor=  908 AccDes= 0.00D+00 IRadAn=         4 IDoV= 1
 ScaDFX=  1.000000  1.000000  1.000000  1.000000
 FoFCou: FMM=F IPFlag=           0 FMFlag=      100000 FMFlg1=           0
         NFxFlg=           0 DoJE=T BraDBF=F KetDBF=T FulRan=T
         Omega=  0.000000  0.000000  1.000000  0.000000  0.000000 ICntrl=     500 IOpCl=  0
         NMat0=    1 NMatS0=    1 NMatT0=    0 NMatD0=    1 NMtDS0=    0 NMtDT0=    0
         I1Cent=           4 NGrid=           0.
 Petite list used in FoFCou.
 Initial guess orbital symmetries:
       Occupied  (A) (A) (A) (A) (A) (A) (A) (A) (A) (A) (A) (A)
                 (A) (A) (A) (A) (A) (A) (A) (A) (A) (A) (A) (A)
                 (A) (A) (A) (A) (A) (A) (A) (A) (A) (A) (A) (A)
                 (A) (A) (A) (A) (A) (A) (A) (A)
       Virtual   (A) (A) (A) (A) (A) (A) (A) (A) (A) (A) (A) (A)
                 (A) (A) (A) (A) (A) (A) (A) (A) (A) (A) (A) (A)
                 (A) (A) (A) (A) (A) (A) (A) (A) (A) (A) (A) (A)
                 (A) (A) (A) (A) (A) (A) (A) (A) (A) (A) (A) (A)
                 (A) (A) (A) (A) (A) (A) (A) (A) (A) (A) (A) (A)
                 (A) (A) (A) (A) (A) (A) (A) (A) (A) (A) (A) (A)
                 (A) (A) (A) (A) (A) (A) (A) (A) (A) (A) (A) (A)
                 (A) (A) (A) (A) (A) (A) (A) (A) (A) (A) (A) (A)
                 (A) (A) (A) (A) (A) (A) (A) (A) (A) (A) (A) (A)
                 (A) (A) (A) (A) (A) (A) (A) (A) (A) (A) (A) (A)
                 (A) (A) (A) (A) (A) (A) (A) (A) (A) (A) (A) (A)
                 (A) (A) (A) (A) (A) (A) (A) (A) (A) (A) (A) (A)
                 (A) (A) (A) (A) (A) (A) (A) (A) (A) (A) (A) (A)
                 (A) (A) (A) (A) (A) (A) (A) (A) (A) (A) (A) (A)
                 (A) (A) (A) (A) (A) (A) (A) (A) (A) (A) (A) (A)
                 (A) (A) (A) (A) (A) (A) (A) (A) (A) (A) (A) (A)
                 (A) (A) (A) (A) (A) (A) (A) (A) (A) (A) (A) (A)
                 (A) (A) (A) (A) (A) (A) (A) (A) (A) (A) (A) (A)
                 (A) (A) (A) (A) (A) (A) (A) (A) (A) (A) (A) (A)
                 (A) (A) (A) (A) (A) (A) (A) (A) (A) (A) (A) (A)
                 (A) (A) (A) (A) (A) (A) (A) (A) (A) (A) (A) (A)
                 (A) (A) (A) (A) (A) (A) (A) (A) (A) (A) (A) (A)
                 (A)
 The electronic state of the initial guess is 1-A.
 Requested convergence on RMS density matrix=1.00D-08 within 128 cycles.
 Requested convergence on MAX density matrix=1.00D-06.
 Requested convergence on             energy=1.00D-06.
 No special actions if energy rises.
 Error on total polarization charges =  0.00947
 SCF Done:  E(RmPW1PW91) =  -468.281830357     A.U. after   12 cycles
             Convg  =    0.8680D-08             -V/T =  2.0099
 Range of M.O.s used for correlation:     1   309
 NBasis=   309 NAE=    44 NBE=    44 NFC=     0 NFV=     0
 NROrb=    309 NOA=    44 NOB=    44 NVA=   265 NVB=   265

 **** Warning!!: The largest alpha MO coefficient is  0.99348114D+02

 NEqPCM:  Using equilibrium solvation (IEInf=0, Eps=   2.2706, EpsInf=   2.2533)
          Differentiating once with respect to magnetic field using GIAOs.
          Electric field/nuclear overlap derivatives assumed to be zero.
 FoFCou: FMM=F IPFlag=           0 FMFlag=    10101102 FMFlg1=           0
         NFxFlg=    40000000 DoJE=F BraDBF=F KetDBF=T FulRan=T
         Omega=  0.000000  0.000000  1.000000  0.000000  0.000000 ICntrl=    6100 IOpCl=  0
         NMat0=    1 NMatS0=    1 NMatT0=    0 NMatD0=    1 NMtDS0=    0 NMtDT0=    0
         I1Cent=           7 NGrid=        1934.
 Symmetry not used in FoFCou.
          There are     3 degrees of freedom in the 1st order CPHF.  IDoFFX=0.
      3 vectors produced by pass  0 Test12= 3.89D-13 3.33D-08 XBig12= 3.89D+01 1.18D+00.
 AX will form     3 AO Fock derivatives at one time.
      3 vectors produced by pass  1 Test12= 3.89D-13 3.33D-08 XBig12= 9.18D-02 5.08D-02.
      3 vectors produced by pass  2 Test12= 3.89D-13 3.33D-08 XBig12= 2.31D-04 4.61D-03.
      3 vectors produced by pass  3 Test12= 3.89D-13 3.33D-08 XBig12= 6.92D-07 1.94D-04.
      3 vectors produced by pass  4 Test12= 3.89D-13 3.33D-08 XBig12= 1.48D-09 6.98D-06.
      3 vectors produced by pass  5 Test12= 3.89D-13 3.33D-08 XBig12= 3.06D-12 3.52D-07.
 Inverted reduced A of dimension    18 with in-core refinement.
 Calculating GIAO nuclear magnetic shielding tensors.
 SCF GIAO Magnetic shielding tensor (ppm):
      1  C    Isotropic =   161.5359   Anisotropy =    11.0747
   XX=   165.5233   YX=    -2.6841   ZX=    -1.2878
   XY=    -6.7672   YY=   162.2276   ZY=    -0.3642
   XZ=    -2.1304   YZ=    -2.1229   ZZ=   156.8569
   Eigenvalues:   155.5967   160.0921   168.9191
      2  C    Isotropic =   116.8548   Anisotropy =    40.4579
   XX=   116.2812   YX=     9.2593   ZX=     9.7788
   XY=     4.5222   YY=   136.9573   ZY=    10.7313
   XZ=     9.8745   YZ=    14.1005   ZZ=    97.3260
   Eigenvalues:    91.3068   115.4309   143.8267
      3  C    Isotropic =   164.3279   Anisotropy =    20.0089
   XX=   177.1798   YX=     1.6873   ZX=    -2.8549
   XY=     2.1821   YY=   159.7391   ZY=     4.3209
   XZ=    -2.7756   YZ=     3.2342   ZZ=   156.0648
   Eigenvalues:   153.2153   162.1012   177.6672
      4  C    Isotropic =   143.3366   Anisotropy =    12.2796
   XX=   147.7251   YX=    -7.0438   ZX=     0.3309
   XY=    -0.8267   YY=   134.1264   ZY=     2.1499
   XZ=    -4.4311   YZ=     4.5701   ZZ=   148.1582
   Eigenvalues:   132.5814   145.9053   151.5230
      5  C    Isotropic =   160.0601   Anisotropy =    20.9748
   XX=   165.7697   YX=    -8.8195   ZX=    -1.7342
   XY=   -12.3637   YY=   159.5543   ZY=    -4.0187
   XZ=     3.8832   YZ=    -1.6477   ZZ=   154.8563
   Eigenvalues:   150.9043   155.2326   174.0433
      6  C    Isotropic =   148.3710   Anisotropy =    39.5295
   XX=   165.3175   YX=    18.2719   ZX=    -4.9240
   XY=    13.7412   YY=   147.3442   ZY=     9.5430
   XZ=    -4.8830   YZ=     2.3894   ZZ=   132.4512
   Eigenvalues:   127.0811   143.3077   174.7240
      7  C    Isotropic =   173.3162   Anisotropy =    37.5839
   XX=   196.5556   YX=    -0.9190   ZX=    -5.4295
   XY=    -1.7998   YY=   162.9315   ZY=    -0.7377
   XZ=   -10.9866   YZ=    -0.9139   ZZ=   160.4614
   Eigenvalues:   158.4150   163.1614   198.3721
      8  O    Isotropic =   259.5961   Anisotropy =    43.0673
   XX=   250.0762   YX=     6.2793   ZX=     0.7093
   XY=    11.3377   YY=   248.3378   ZY=     5.1949
   XZ=     8.1797   YZ=    26.3066   ZZ=   280.3743
   Eigenvalues:   238.0487   252.4319   288.3076
      9  C    Isotropic =   159.6186   Anisotropy =    19.8568
   XX=   171.5518   YX=    -1.4314   ZX=    -3.8746
   XY=    -1.3873   YY=   152.1042   ZY=    -1.9078
   XZ=    -5.5370   YZ=    -1.0134   ZZ=   155.1996
   Eigenvalues:   150.9919   155.0073   172.8564
     10  C    Isotropic =   173.7721   Anisotropy =    27.4920
   XX=   172.9549   YX=   -11.7763   ZX=     0.6631
   XY=    -5.0436   YY=   188.3231   ZY=     1.3194
   XZ=     1.1335   YZ=    -3.7859   ZZ=   160.0383
   Eigenvalues:   159.9577   169.2585   192.1001
     11  C    Isotropic =   170.8557   Anisotropy =    36.2639
   XX=   177.0961   YX=    15.3379   ZX=     6.4457
   XY=    11.8617   YY=   175.5337   ZY=     9.6241
   XZ=     6.5255   YZ=    15.2291   ZZ=   159.9374
   Eigenvalues:   153.0146   164.5209   195.0317
     12  H    Isotropic =    30.0497   Anisotropy =     6.6276
   XX=    30.2231   YX=     0.1021   ZX=     1.6660
   XY=     0.5648   YY=    26.2007   ZY=     1.1292
   XZ=     1.4958   YZ=     0.8760   ZZ=    33.7253
   Eigenvalues:    26.0653    29.6157    34.4681
     13  H    Isotropic =    28.2788   Anisotropy =     1.8814
   XX=    27.6566   YX=     0.9581   ZX=     0.9324
   XY=     1.2117   YY=    27.8127   ZY=     0.1647
   XZ=    -0.0859   YZ=    -1.2099   ZZ=    29.3669
   Eigenvalues:    26.4925    28.8108    29.5330
     14  H    Isotropic =    29.7662   Anisotropy =     8.3381
   XX=    33.3323   YX=    -2.0004   ZX=     0.5189
   XY=    -2.1300   YY=    32.5857   ZY=    -2.6195
   XZ=    -0.2511   YZ=    -2.4499   ZZ=    23.3805
   Eigenvalues:    22.7142    31.2594    35.3249
     15  H    Isotropic =    30.6008   Anisotropy =     6.8107
   XX=    30.9175   YX=     0.4338   ZX=    -0.9759
   XY=    -0.1057   YY=    29.0516   ZY=     4.6176
   XZ=    -0.4001   YZ=     4.2543   ZZ=    31.8334
   Eigenvalues:    25.7371    30.9240    35.1413
     16  H    Isotropic =    30.9503   Anisotropy =     2.8694
   XX=    32.4599   YX=     0.9040   ZX=     0.3825
   XY=     0.3797   YY=    28.3315   ZY=     0.4021
   XZ=     0.3453   YZ=     1.0235   ZZ=    32.0595
   Eigenvalues:    28.1253    31.8624    32.8633
     17  H    Isotropic =    30.7395   Anisotropy =     6.6604
   XX=    30.8171   YX=    -0.2380   ZX=    -1.9615
   XY=     0.1631   YY=    27.9553   ZY=    -3.1813
   XZ=    -1.3305   YZ=    -2.5172   ZZ=    33.4460
   Eigenvalues:    26.6263    30.4125    35.1797
     18  H    Isotropic =    30.0111   Anisotropy =     8.8932
   XX=    31.0118   YX=     2.6317   ZX=     0.2416
   XY=     2.7610   YY=    34.3763   ZY=     0.8761
   XZ=    -0.0694   YZ=     1.0261   ZZ=    24.6450
   Eigenvalues:    24.5476    29.5457    35.9398
     19  H    Isotropic =    30.9279   Anisotropy =     4.3565
   XX=    31.5587   YX=    -0.1727   ZX=    -1.5451
   XY=     0.3733   YY=    30.2826   ZY=     3.2838
   XZ=    -1.0144   YZ=     2.3758   ZZ=    30.9425
   Eigenvalues:    27.5428    31.4087    33.8323
     20  H    Isotropic =    29.6511   Anisotropy =     6.6330
   XX=    30.6696   YX=    -1.5773   ZX=     1.2100
   XY=    -1.3388   YY=    32.3804   ZY=    -2.7122
   XZ=     0.8812   YZ=    -2.1826   ZZ=    25.9034
   Eigenvalues:    25.0299    29.8504    34.0731
     21  H    Isotropic =    30.9950   Anisotropy =     8.2726
   XX=    31.7087   YX=    -0.3968   ZX=    -3.9071
   XY=    -0.2945   YY=    27.3274   ZY=     0.7576
   XZ=    -2.9538   YZ=     0.7578   ZZ=    33.9489
   Eigenvalues:    27.2412    29.2338    36.5101
     22  H    Isotropic =    30.5785   Anisotropy =    10.5449
   XX=    34.4878   YX=    -4.6865   ZX=     2.1107
   XY=    -3.4659   YY=    30.2651   ZY=    -2.4420
   XZ=     1.3790   YZ=    -1.8278   ZZ=    26.9827
   Eigenvalues:    25.9197    28.2074    37.6085
     23  H    Isotropic =    30.5493   Anisotropy =    10.5920
   XX=    34.6202   YX=     4.9530   ZX=     1.0932
   XY=     3.7232   YY=    30.7621   ZY=     1.6146
   XZ=     0.6293   YZ=     0.8516   ZZ=    26.2655
   Eigenvalues:    25.9375    28.0997    37.6106
     24  H    Isotropic =    31.6336   Anisotropy =    12.9526
   XX=    26.5067   YX=     1.8188   ZX=     0.6389
   XY=     1.8326   YY=    31.3072   ZY=     5.5235
   XZ=     0.6400   YZ=     4.7918   ZZ=    37.0870
   Eigenvalues:    25.7396    28.8925    40.2687
     25  H    Isotropic =    30.0029   Anisotropy =     5.6738
   XX=    28.6967   YX=    -0.4943   ZX=    -1.1106
   XY=    -0.8403   YY=    27.9739   ZY=    -1.1233
   XZ=    -0.7991   YZ=    -1.6046   ZZ=    33.3382
   Eigenvalues:    27.1317    29.0917    33.7855
     26  H    Isotropic =    31.0171   Anisotropy =     7.9612
   XX=    29.7969   YX=    -1.6018   ZX=     1.6707
   XY=    -1.8151   YY=    31.0702   ZY=    -4.2503
   XZ=     0.9937   YZ=    -3.6772   ZZ=    32.1841
   Eigenvalues:    27.5239    29.2028    36.3246
     27  H    Isotropic =    30.4143   Anisotropy =     8.4072
   XX=    30.4031   YX=    -0.9724   ZX=     0.5112
   XY=     0.3602   YY=    34.1876   ZY=     4.5358
   XZ=     0.4466   YZ=     3.7444   ZZ=    26.6523
   Eigenvalues:    24.7661    30.4577    36.0191
     28  H    Isotropic =    30.8920   Anisotropy =    10.1974
   XX=    36.1213   YX=    -2.1513   ZX=    -2.5974
   XY=    -3.2007   YY=    29.6369   ZY=     0.6855
   XZ=    -2.3007   YZ=     0.8093   ZZ=    26.9179
   Eigenvalues:    26.3045    28.6813    37.6902
     29  H    Isotropic =    31.0412   Anisotropy =     7.5941
   XX=    30.3901   YX=     0.7074   ZX=     3.1102
   XY=     1.0308   YY=    28.4433   ZY=     1.9977
   XZ=     2.3512   YZ=     1.0857   ZZ=    34.2902
   Eigenvalues:    28.0306    28.9891    36.1039
     30  H    Isotropic =    29.0414   Anisotropy =     7.5539
   XX=    30.8855   YX=    -0.3047   ZX=     1.5183
   XY=    -1.2725   YY=    33.8536   ZY=    -0.6914
   XZ=     1.6696   YZ=     0.3563   ZZ=    22.3852
   Eigenvalues:    22.0961    30.9509    34.0774
     31  H    Isotropic =    30.7323   Anisotropy =    10.6692
   XX=    37.0429   YX=     1.8452   ZX=    -2.0912
   XY=     2.9099   YY=    28.5609   ZY=     0.4886
   XZ=    -1.0500   YZ=     0.2684   ZZ=    26.5929
   Eigenvalues:    26.1009    28.2508    37.8450
 End of Minotr Frequency-dependent properties file   721 does not exist.
 End of Minotr Frequency-dependent properties file   722 does not exist.

 **********************************************************************

            Population analysis using the SCF density.

 **********************************************************************

 Orbital symmetries:
       Occupied  (A) (A) (A) (A) (A) (A) (A) (A) (A) (A) (A) (A)
                 (A) (A) (A) (A) (A) (A) (A) (A) (A) (A) (A) (A)
                 (A) (A) (A) (A) (A) (A) (A) (A) (A) (A) (A) (A)
                 (A) (A) (A) (A) (A) (A) (A) (A)
       Virtual   (A) (A) (A) (A) (A) (A) (A) (A) (A) (A) (A) (A)
                 (A) (A) (A) (A) (A) (A) (A) (A) (A) (A) (A) (A)
                 (A) (A) (A) (A) (A) (A) (A) (A) (A) (A) (A) (A)
                 (A) (A) (A) (A) (A) (A) (A) (A) (A) (A) (A) (A)
                 (A) (A) (A) (A) (A) (A) (A) (A) (A) (A) (A) (A)
                 (A) (A) (A) (A) (A) (A) (A) (A) (A) (A) (A) (A)
                 (A) (A) (A) (A) (A) (A) (A) (A) (A) (A) (A) (A)
                 (A) (A) (A) (A) (A) (A) (A) (A) (A) (A) (A) (A)
                 (A) (A) (A) (A) (A) (A) (A) (A) (A) (A) (A) (A)
                 (A) (A) (A) (A) (A) (A) (A) (A) (A) (A) (A) (A)
                 (A) (A) (A) (A) (A) (A) (A) (A) (A) (A) (A) (A)
                 (A) (A) (A) (A) (A) (A) (A) (A) (A) (A) (A) (A)
                 (A) (A) (A) (A) (A) (A) (A) (A) (A) (A) (A) (A)
                 (A) (A) (A) (A) (A) (A) (A) (A) (A) (A) (A) (A)
                 (A) (A) (A) (A) (A) (A) (A) (A) (A) (A) (A) (A)
                 (A) (A) (A) (A) (A) (A) (A) (A) (A) (A) (A) (A)
                 (A) (A) (A) (A) (A) (A) (A) (A) (A) (A) (A) (A)
                 (A) (A) (A) (A) (A) (A) (A) (A) (A) (A) (A) (A)
                 (A) (A) (A) (A) (A) (A) (A) (A) (A) (A) (A) (A)
                 (A) (A) (A) (A) (A) (A) (A) (A) (A) (A) (A) (A)
                 (A) (A) (A) (A) (A) (A) (A) (A) (A) (A) (A) (A)
                 (A) (A) (A) (A) (A) (A) (A) (A) (A) (A) (A) (A)
                 (A)
 The electronic state is 1-A.
 Alpha  occ. eigenvalues --  -19.24497 -10.29543 -10.25181 -10.25140 -10.25069
 Alpha  occ. eigenvalues --  -10.24290 -10.24130 -10.24071 -10.23518 -10.23131
 Alpha  occ. eigenvalues --  -10.22386  -1.05078  -0.86166  -0.82217  -0.76767
 Alpha  occ. eigenvalues --   -0.75423  -0.69807  -0.69541  -0.63226  -0.62012
 Alpha  occ. eigenvalues --   -0.57938  -0.57496  -0.51164  -0.48338  -0.46397
 Alpha  occ. eigenvalues --   -0.46238  -0.45021  -0.44099  -0.42678  -0.42080
 Alpha  occ. eigenvalues --   -0.40711  -0.39780  -0.38760  -0.38377  -0.37135
 Alpha  occ. eigenvalues --   -0.35532  -0.35264  -0.34946  -0.34081  -0.33111
 Alpha  occ. eigenvalues --   -0.32411  -0.31784  -0.30594  -0.27240
 Alpha virt. eigenvalues --    0.01128   0.01603   0.01943   0.02462   0.03804
 Alpha virt. eigenvalues --    0.04391   0.04898   0.05079   0.05869   0.06281
 Alpha virt. eigenvalues --    0.06658   0.07316   0.07785   0.08897   0.09355
 Alpha virt. eigenvalues --    0.09900   0.09990   0.10512   0.10672   0.11275
 Alpha virt. eigenvalues --    0.11860   0.13312   0.13477   0.14008   0.14522
 Alpha virt. eigenvalues --    0.14790   0.15441   0.16628   0.17046   0.17967
 Alpha virt. eigenvalues --    0.18207   0.18508   0.19184   0.19601   0.19953
 Alpha virt. eigenvalues --    0.20521   0.20619   0.21065   0.22287   0.22650
 Alpha virt. eigenvalues --    0.22793   0.23515   0.23708   0.23897   0.24559
 Alpha virt. eigenvalues --    0.25491   0.25672   0.26030   0.26553   0.26865
 Alpha virt. eigenvalues --    0.27807   0.28320   0.28969   0.29158   0.29772
 Alpha virt. eigenvalues --    0.30046   0.30727   0.31706   0.33256   0.33612
 Alpha virt. eigenvalues --    0.34601   0.34841   0.35670   0.36313   0.37003
 Alpha virt. eigenvalues --    0.37364   0.38208   0.39180   0.39361   0.41502
 Alpha virt. eigenvalues --    0.41986   0.43780   0.47751   0.49369   0.52402
 Alpha virt. eigenvalues --    0.61952   0.62816   0.63602   0.65514   0.66418
 Alpha virt. eigenvalues --    0.67902   0.68596   0.70612   0.71615   0.72192
 Alpha virt. eigenvalues --    0.72941   0.73911   0.74613   0.75747   0.76951
 Alpha virt. eigenvalues --    0.77455   0.79214   0.79924   0.82377   0.84213
 Alpha virt. eigenvalues --    0.85437   0.87419   0.88358   0.88520   0.92765
 Alpha virt. eigenvalues --    0.96787   0.98320   0.98947   1.00158   1.00361
 Alpha virt. eigenvalues --    1.01553   1.01947   1.02633   1.04009   1.04783
 Alpha virt. eigenvalues --    1.06791   1.07585   1.08341   1.08696   1.10765
 Alpha virt. eigenvalues --    1.11862   1.14360   1.15126   1.15640   1.16910
 Alpha virt. eigenvalues --    1.17948   1.18274   1.19479   1.19916   1.20981
 Alpha virt. eigenvalues --    1.23074   1.25479   1.28139   1.29518   1.34235
 Alpha virt. eigenvalues --    1.36234   1.38493   1.41487   1.42261   1.44270
 Alpha virt. eigenvalues --    1.48085   1.48870   1.49679   1.53564   1.56310
 Alpha virt. eigenvalues --    1.58401   1.60341   1.61815   1.63181   1.67084
 Alpha virt. eigenvalues --    1.70451   1.71075   1.74946   1.78129   1.78887
 Alpha virt. eigenvalues --    1.83754   1.84842   1.85606   1.86649   1.87871
 Alpha virt. eigenvalues --    1.89346   1.89750   1.90638   1.94336   1.94600
 Alpha virt. eigenvalues --    1.95129   1.96045   1.97998   2.00061   2.02081
 Alpha virt. eigenvalues --    2.04319   2.04980   2.05879   2.08343   2.09292
 Alpha virt. eigenvalues --    2.09690   2.10166   2.12066   2.12985   2.14063
 Alpha virt. eigenvalues --    2.16158   2.16761   2.17844   2.18820   2.19284
 Alpha virt. eigenvalues --    2.20558   2.21182   2.23159   2.25865   2.30018
 Alpha virt. eigenvalues --    2.31159   2.33422   2.33759   2.36654   2.37648
 Alpha virt. eigenvalues --    2.37751   2.41259   2.41501   2.43725   2.45457
 Alpha virt. eigenvalues --    2.47336   2.49305   2.50822   2.54234   2.55296
 Alpha virt. eigenvalues --    2.58021   2.61214   2.62710   2.63621   2.65317
 Alpha virt. eigenvalues --    2.68465   2.69817   2.71358   2.72685   2.73749
 Alpha virt. eigenvalues --    2.75372   2.75551   2.77301   2.77817   2.77959
 Alpha virt. eigenvalues --    2.80619   2.82072   2.84051   2.85470   2.87275
 Alpha virt. eigenvalues --    2.87908   2.88948   2.90119   2.91884   2.92242
 Alpha virt. eigenvalues --    2.93446   2.94028   2.94955   2.97287   2.99930
 Alpha virt. eigenvalues --    3.00663   3.03937   3.07318   3.17294   3.29096
 Alpha virt. eigenvalues --    3.29409   3.31582   3.33614   3.37346   3.37975
 Alpha virt. eigenvalues --    3.39371   3.42082   3.44771   3.48952   3.50065
 Alpha virt. eigenvalues --    3.50547   3.53643   3.54150   3.55338   3.57627
 Alpha virt. eigenvalues --    3.59043   3.60037   3.61959   3.65564   4.33274
 Alpha virt. eigenvalues --    4.43346   4.46823   4.50775   4.53970   4.60228
 Alpha virt. eigenvalues --    4.61064   4.74845   4.83515   4.85488   4.88218
          Condensed to atoms (all electrons):
              1          2          3          4          5          6
     1  C    6.501653  -0.066840  -0.128383   0.011305   0.095758  -0.079575
     2  C   -0.066840   6.118451  -0.128020  -0.360528  -0.034489  -0.117961
     3  C   -0.128383  -0.128020   6.481659  -0.468252  -0.125692  -0.023668
     4  C    0.011305  -0.360528  -0.468252   7.594449  -0.104537   0.002563
     5  C    0.095758  -0.034489  -0.125692  -0.104537   5.949479  -0.121286
     6  C   -0.079575  -0.117961  -0.023668   0.002563  -0.121286   6.094842
     7  C   -0.365740  -0.058646  -0.134882   0.011631   0.132714   0.078469
     8  O   -0.007552   0.328014   0.066961  -0.167334  -0.003689  -0.155720
     9  C    0.011550   0.116306   0.455835  -1.515304   0.005693   0.000119
    10  C   -0.020972  -0.058462  -0.011223   0.288420  -0.011524  -0.011956
    11  C   -0.003096  -0.024730  -0.082626   0.316933  -0.038411   0.012450
    12  H    0.284667  -0.002417  -0.011283   0.022561  -0.043669  -0.006632
    13  H    0.001461   0.424025  -0.036783   0.008115   0.003714  -0.021541
    14  H    0.029953   0.014445   0.298383  -0.014545   0.037319  -0.002858
    15  H   -0.000884  -0.014112   0.370237  -0.011958  -0.045179   0.002052
    16  H   -0.001660  -0.024779  -0.087567   0.425542   0.002445   0.013618
    17  H   -0.084343   0.016653  -0.093034   0.038575   0.438761  -0.016437
    18  H   -0.037706   0.004104  -0.023933   0.032364   0.337375   0.033147
    19  H   -0.097147  -0.062796   0.002147   0.017619  -0.029826   0.471576
    20  H   -0.021126  -0.065342  -0.004017   0.040141   0.035959   0.364500
    21  H   -0.111090   0.005899   0.004590   0.002262  -0.004515   0.001186
    22  H   -0.122819  -0.002708  -0.014633   0.000104   0.037108  -0.000919
    23  H   -0.113581  -0.009078  -0.004136   0.000898   0.005332   0.029405
    24  H    0.007228   0.092147  -0.014422  -0.031217   0.002576  -0.042558
    25  H    0.000192   0.004159  -0.044856   0.048472   0.000143   0.010140
    26  H    0.000380   0.004078  -0.029053   0.042032   0.003614  -0.000303
    27  H   -0.001256   0.000760   0.032277  -0.052733  -0.002687  -0.002022
    28  H   -0.000235  -0.004283  -0.010551   0.068111   0.000429   0.000122
    29  H   -0.000430   0.002124  -0.004616   0.022639  -0.000900   0.003872
    30  H    0.001316  -0.014988  -0.002033   0.022791  -0.001044  -0.000023
    31  H   -0.000203   0.004449  -0.006627   0.042008   0.000503   0.000327
              7          8          9         10         11         12
     1  C   -0.365740  -0.007552   0.011550  -0.020972  -0.003096   0.284667
     2  C   -0.058646   0.328014   0.116306  -0.058462  -0.024730  -0.002417
     3  C   -0.134882   0.066961   0.455835  -0.011223  -0.082626  -0.011283
     4  C    0.011631  -0.167334  -1.515304   0.288420   0.316933   0.022561
     5  C    0.132714  -0.003689   0.005693  -0.011524  -0.038411  -0.043669
     6  C    0.078469  -0.155720   0.000119  -0.011956   0.012450  -0.006632
     7  C    5.683059  -0.005904  -0.012325  -0.004758   0.003516   0.027467
     8  O   -0.005904   8.268942   0.073036   0.010301  -0.046707  -0.000863
     9  C   -0.012325   0.073036   7.972725  -0.391557  -0.542968  -0.003433
    10  C   -0.004758   0.010301  -0.391557   5.634576  -0.039615   0.001896
    11  C    0.003516  -0.046707  -0.542968  -0.039615   5.692631   0.000857
    12  H    0.027467  -0.000863  -0.003433   0.001896   0.000857   0.567677
    13  H    0.010469  -0.071759  -0.082618   0.002532   0.022050   0.002237
    14  H    0.001837  -0.000433  -0.025605  -0.002458  -0.007684  -0.000018
    15  H    0.008990  -0.000594  -0.006315  -0.008743   0.008327   0.002837
    16  H    0.009785  -0.013529  -0.091782  -0.012424   0.035008   0.000052
    17  H    0.007970  -0.000576  -0.006697   0.002326   0.001857   0.005145
    18  H   -0.016119   0.000074  -0.001404   0.000000   0.000209  -0.004212
    19  H    0.016488  -0.013002  -0.012605   0.001550   0.004288   0.005023
    20  H   -0.013194   0.000854  -0.003660   0.000201  -0.001397  -0.004525
    21  H    0.450710  -0.000103  -0.000282   0.000153   0.000039   0.004786
    22  H    0.464136  -0.000026  -0.000248  -0.000031  -0.000025  -0.003663
    23  H    0.450322   0.000031  -0.000097  -0.000064   0.000010  -0.003638
    24  H    0.001939   0.238206  -0.050731  -0.002935   0.031318   0.000012
    25  H    0.000313  -0.002159   0.234316  -0.021389   0.035667  -0.000002
    26  H    0.000078  -0.000079  -0.131418   0.448079   0.008779   0.000000
    27  H   -0.000245   0.000049  -0.035061   0.430254  -0.006885   0.000001
    28  H   -0.000009   0.000017  -0.176844   0.470017   0.010519   0.000000
    29  H   -0.000006  -0.002270  -0.132266  -0.000194   0.456399   0.000000
    30  H    0.000024  -0.006236  -0.079309  -0.001745   0.446781   0.000000
    31  H    0.000012   0.001013  -0.134342   0.007449   0.439364   0.000000
             13         14         15         16         17         18
     1  C    0.001461   0.029953  -0.000884  -0.001660  -0.084343  -0.037706
     2  C    0.424025   0.014445  -0.014112  -0.024779   0.016653   0.004104
     3  C   -0.036783   0.298383   0.370237  -0.087567  -0.093034  -0.023933
     4  C    0.008115  -0.014545  -0.011958   0.425542   0.038575   0.032364
     5  C    0.003714   0.037319  -0.045179   0.002445   0.438761   0.337375
     6  C   -0.021541  -0.002858   0.002052   0.013618  -0.016437   0.033147
     7  C    0.010469   0.001837   0.008990   0.009785   0.007970  -0.016119
     8  O   -0.071759  -0.000433  -0.000594  -0.013529  -0.000576   0.000074
     9  C   -0.082618  -0.025605  -0.006315  -0.091782  -0.006697  -0.001404
    10  C    0.002532  -0.002458  -0.008743  -0.012424   0.002326   0.000000
    11  C    0.022050  -0.007684   0.008327   0.035008   0.001857   0.000209
    12  H    0.002237  -0.000018   0.002837   0.000052   0.005145  -0.004212
    13  H    0.560997  -0.000100   0.002965   0.004882   0.000065  -0.000017
    14  H   -0.000100   0.549492  -0.029710  -0.004071  -0.004431  -0.002904
    15  H    0.002965  -0.029710   0.546577   0.004951   0.004602  -0.004101
    16  H    0.004882  -0.004071   0.004951   0.570670   0.002493   0.000003
    17  H    0.000065  -0.004431   0.004602   0.002493   0.548272  -0.029491
    18  H   -0.000017  -0.002904  -0.004101   0.000003  -0.029491   0.551872
    19  H    0.004592  -0.000048   0.000095   0.002594   0.003344  -0.000012
    20  H   -0.005701   0.000010  -0.000041  -0.000091  -0.000057  -0.000134
    21  H    0.000000   0.000000   0.000001  -0.000004   0.003350  -0.000136
    22  H    0.000002   0.000002   0.000002   0.000001  -0.000014  -0.000003
    23  H    0.000004  -0.000003   0.000002   0.000001  -0.000204   0.002641
    24  H    0.008060  -0.000002   0.000012   0.004386   0.000016   0.000000
    25  H    0.003902   0.000094   0.002308   0.004999   0.000000   0.000003
    26  H    0.000004  -0.000110   0.000357   0.002475   0.000013   0.000002
    27  H    0.000016  -0.002817   0.000136   0.000046   0.000007   0.000006
    28  H   -0.000003   0.000207  -0.000045  -0.000098   0.000000   0.000000
    29  H    0.000002   0.000029   0.000003   0.003352   0.000000   0.000000
    30  H    0.000105   0.000002  -0.000003  -0.000208   0.000000   0.000000
    31  H    0.000004  -0.000005   0.000002   0.000111   0.000000   0.000000
             19         20         21         22         23         24
     1  C   -0.097147  -0.021126  -0.111090  -0.122819  -0.113581   0.007228
     2  C   -0.062796  -0.065342   0.005899  -0.002708  -0.009078   0.092147
     3  C    0.002147  -0.004017   0.004590  -0.014633  -0.004136  -0.014422
     4  C    0.017619   0.040141   0.002262   0.000104   0.000898  -0.031217
     5  C   -0.029826   0.035959  -0.004515   0.037108   0.005332   0.002576
     6  C    0.471576   0.364500   0.001186  -0.000919   0.029405  -0.042558
     7  C    0.016488  -0.013194   0.450710   0.464136   0.450322   0.001939
     8  O   -0.013002   0.000854  -0.000103  -0.000026   0.000031   0.238206
     9  C   -0.012605  -0.003660  -0.000282  -0.000248  -0.000097  -0.050731
    10  C    0.001550   0.000201   0.000153  -0.000031  -0.000064  -0.002935
    11  C    0.004288  -0.001397   0.000039  -0.000025   0.000010   0.031318
    12  H    0.005023  -0.004525   0.004786  -0.003663  -0.003638   0.000012
    13  H    0.004592  -0.005701   0.000000   0.000002   0.000004   0.008060
    14  H   -0.000048   0.000010   0.000000   0.000002  -0.000003  -0.000002
    15  H    0.000095  -0.000041   0.000001   0.000002   0.000002   0.000012
    16  H    0.002594  -0.000091  -0.000004   0.000001   0.000001   0.004386
    17  H    0.003344  -0.000057   0.003350  -0.000014  -0.000204   0.000016
    18  H   -0.000012  -0.000134  -0.000136  -0.000003   0.002641   0.000000
    19  H    0.553523  -0.031275   0.003306  -0.000186  -0.000004   0.004926
    20  H   -0.031275   0.532587  -0.000205   0.002537  -0.000006  -0.001138
    21  H    0.003306  -0.000205   0.534247  -0.028000  -0.027856   0.000002
    22  H   -0.000186   0.002537  -0.028000   0.529512  -0.025507   0.000000
    23  H   -0.000004  -0.000006  -0.027856  -0.025507   0.531361   0.000000
    24  H    0.004926  -0.001138   0.000002   0.000000   0.000000   0.394123
    25  H    0.000003  -0.000004   0.000000   0.000000   0.000000   0.000237
    26  H    0.000000   0.000000   0.000000   0.000000   0.000000   0.000003
    27  H    0.000000   0.000000   0.000000   0.000000   0.000000   0.000000
    28  H    0.000000   0.000000   0.000000   0.000000   0.000000   0.000000
    29  H    0.000001   0.000000   0.000000   0.000000   0.000000   0.000238
    30  H    0.000008   0.000005   0.000000   0.000000   0.000000  -0.001846
    31  H    0.000000   0.000000   0.000000   0.000000   0.000000  -0.000005
             25         26         27         28         29         30
     1  C    0.000192   0.000380  -0.001256  -0.000235  -0.000430   0.001316
     2  C    0.004159   0.004078   0.000760  -0.004283   0.002124  -0.014988
     3  C   -0.044856  -0.029053   0.032277  -0.010551  -0.004616  -0.002033
     4  C    0.048472   0.042032  -0.052733   0.068111   0.022639   0.022791
     5  C    0.000143   0.003614  -0.002687   0.000429  -0.000900  -0.001044
     6  C    0.010140  -0.000303  -0.002022   0.000122   0.003872  -0.000023
     7  C    0.000313   0.000078  -0.000245  -0.000009  -0.000006   0.000024
     8  O   -0.002159  -0.000079   0.000049   0.000017  -0.002270  -0.006236
     9  C    0.234316  -0.131418  -0.035061  -0.176844  -0.132266  -0.079309
    10  C   -0.021389   0.448079   0.430254   0.470017  -0.000194  -0.001745
    11  C    0.035667   0.008779  -0.006885   0.010519   0.456399   0.446781
    12  H   -0.000002   0.000000   0.000001   0.000000   0.000000   0.000000
    13  H    0.003902   0.000004   0.000016  -0.000003   0.000002   0.000105
    14  H    0.000094  -0.000110  -0.002817   0.000207   0.000029   0.000002
    15  H    0.002308   0.000357   0.000136  -0.000045   0.000003  -0.000003
    16  H    0.004999   0.002475   0.000046  -0.000098   0.003352  -0.000208
    17  H    0.000000   0.000013   0.000007   0.000000   0.000000   0.000000
    18  H    0.000003   0.000002   0.000006   0.000000   0.000000   0.000000
    19  H    0.000003   0.000000   0.000000   0.000000   0.000001   0.000008
    20  H   -0.000004   0.000000   0.000000   0.000000   0.000000   0.000005
    21  H    0.000000   0.000000   0.000000   0.000000   0.000000   0.000000
    22  H    0.000000   0.000000   0.000000   0.000000   0.000000   0.000000
    23  H    0.000000   0.000000   0.000000   0.000000   0.000000   0.000000
    24  H    0.000237   0.000003   0.000000   0.000000   0.000238  -0.001846
    25  H    0.573014   0.004925  -0.003907  -0.003008   0.004835  -0.003393
    26  H    0.004925   0.532483  -0.028736  -0.027728   0.002920  -0.000009
    27  H   -0.003907  -0.028736   0.532760  -0.026189   0.000003  -0.000141
    28  H   -0.003008  -0.027728  -0.026189   0.533344  -0.000252   0.000142
    29  H    0.004835   0.002920   0.000003  -0.000252   0.542995  -0.026845
    30  H   -0.003393  -0.000009  -0.000141   0.000142  -0.026845   0.497959
    31  H   -0.002919  -0.000059   0.000130   0.003241  -0.028589  -0.024333
             31
     1  C   -0.000203
     2  C    0.004449
     3  C   -0.006627
     4  C    0.042008
     5  C    0.000503
     6  C    0.000327
     7  C    0.000012
     8  O    0.001013
     9  C   -0.134342
    10  C    0.007449
    11  C    0.439364
    12  H    0.000000
    13  H    0.000004
    14  H   -0.000005
    15  H    0.000002
    16  H    0.000111
    17  H    0.000000
    18  H    0.000000
    19  H    0.000000
    20  H    0.000000
    21  H    0.000000
    22  H    0.000000
    23  H    0.000000
    24  H   -0.000005
    25  H   -0.002919
    26  H   -0.000059
    27  H    0.000130
    28  H    0.003241
    29  H   -0.028589
    30  H   -0.024333
    31  H    0.542321
 Mulliken atomic charges:
              1
     1  C    0.319177
     2  C   -0.085435
     3  C   -0.221801
     4  C   -0.333128
     5  C   -0.521476
     6  C   -0.514929
     7  C   -0.748101
     8  O   -0.488961
     9  C    0.567292
    10  C   -0.697706
    11  C   -0.732861
    12  H    0.159138
    13  H    0.158317
    14  H    0.166028
    15  H    0.167229
    16  H    0.148798
    17  H    0.161836
    18  H    0.158371
    19  H    0.155816
    20  H    0.175121
    21  H    0.161661
    22  H    0.165379
    23  H    0.164166
    24  H    0.359425
    25  H    0.153915
    26  H    0.167272
    27  H    0.166232
    28  H    0.163098
    29  H    0.156952
    30  H    0.193022
    31  H    0.156150
 Sum of Mulliken atomic charges =   0.00000
 Mulliken charges with hydrogens summed into heavy atoms:
              1
     1  C    0.478315
     2  C    0.072883
     3  C    0.111456
     4  C   -0.184330
     5  C   -0.201269
     6  C   -0.183992
     7  C   -0.256894
     8  O   -0.129536
     9  C    0.721207
    10  C   -0.201103
    11  C   -0.226737
 Sum of Mulliken charges with hydrogens summed into heavy atoms =   0.00000
 Electronic spatial extent (au):  <R**2>=           2283.5416
 Charge=              0.0000 electrons
 Dipole moment (field-independent basis, Debye):
    X=             -0.9295    Y=             -1.3927    Z=              0.9644  Tot=              1.9323
 Quadrupole moment (field-independent basis, Debye-Ang):
   XX=            -73.3551   YY=            -76.6320   ZZ=            -69.8149
   XY=             -1.4206   XZ=              0.8698   YZ=              3.7988
 Traceless Quadrupole moment (field-independent basis, Debye-Ang):
   XX=             -0.0877   YY=             -3.3646   ZZ=              3.4524
   XY=             -1.4206   XZ=              0.8698   YZ=              3.7988
 Octapole moment (field-independent basis, Debye-Ang**2):
  XXX=             -0.1913  YYY=             -4.4168  ZZZ=              0.5043  XYY=             -5.8985
  XXY=              1.5302  XXZ=             -4.6121  XZZ=              0.3167  YZZ=              6.5064
  YYZ=              9.5814  XYZ=              1.8023
 Hexadecapole moment (field-independent basis, Debye-Ang**3):
 XXXX=          -2227.9246 YYYY=           -810.2484 ZZZZ=           -181.5449 XXXY=              1.4984
 XXXZ=             -3.1788 YYYX=              3.8944 YYYZ=             30.7282 ZZZX=              0.0974
 ZZZY=              2.4626 XXYY=           -503.4597 XXZZ=           -400.9851 YYZZ=           -152.7422
 XXYZ=             -0.4807 YYXZ=              9.9194 ZZXY=              0.8139
 N-N= 6.844230285815D+02 E-N=-2.454087087089D+03  KE= 4.636957251427D+02
 1\1\GINC-COMPUTE-10-0\SP\RmPW1PW91\6-31+G(d,p)\C10H20O1\ASAROTTI.IQUIR
 \19-Sep-2024\0\\# mPW1PW91/6-31+G** nmr scrf=(pcm,solvent=benzene)\\co
 mment\\0,1\C,0,-2.329027,-0.213177,-0.296017\C,0,-0.087962,1.043091,-0
 .399273\C,0,-0.109348,-1.455438,-0.146568\C,0,0.682345,-0.167656,0.188
 352\C,0,-1.577243,-1.410826,0.299441\C,0,-1.560597,1.072897,0.037534\C
 ,0,-3.785504,-0.147182,0.176566\O,0,0.510307,2.314694,-0.123617\C,0,2.
 168921,-0.236137,-0.283631\C,0,2.80854,-1.623622,-0.086845\C,0,3.06168
 2,0.81415,0.403156\H,0,-2.331642,-0.32936,-1.391863\H,0,-0.046019,0.96
 5747,-1.494456\H,0,0.375688,-2.318786,0.319083\H,0,-0.067311,-1.628415
 ,-1.233308\H,0,0.681906,-0.059761,1.288269\H,0,-1.623577,-1.350107,1.3
 98065\H,0,-2.07659,-2.348525,0.020795\H,0,-1.59803,1.236571,1.128088\H
 ,0,-2.03656,1.946144,-0.425626\H,0,-3.839914,-0.031462,1.266954\H,0,-4
 .313404,0.701506,-0.274505\H,0,-4.330922,-1.061025,-0.08812\H,0,0.4696
 82,2.447077,0.837783\H,0,2.172675,-0.024602,-1.36454\H,0,2.769671,-1.9
 3547,0.965649\H,0,2.329882,-2.403549,-0.686483\H,0,3.865028,-1.590581,
 -0.377314\H,0,3.086669,0.64812,1.489423\H,0,2.70607,1.827444,0.215411\
 H,0,4.093389,0.734883,0.039344\\Version=EM64L-G09RevC.01\State=1-A\HF=
 -468.2818304\RMSD=8.680e-09\Dipole=-0.3656903,-0.5479464,0.37941\Quadr
 upole=-0.065229,-2.5015332,2.5667622,-1.0561501,0.6467033,2.8243333\PG
 =C01 [X(C10H20O1)]\\@


 A HARD FALL SHOULD MEAN A HIGH BOUNCE 
 IF ONE IS MADE OF THE RIGHT MATERIAL.

                -- THE CHEMIST ANALYST, MARCH 1950
 Job cpu time:  0 days  0 hours 40 minutes  6.8 seconds.
 File lengths (MBytes):  RWF=    121 Int=      0 D2E=      0 Chk=      7 Scr=      1
 Normal termination of Gaussian 09 at Thu Sep 19 08:10:13 2024.
