 Entering Gaussian System, Link 0=g09
 Input=/home/asarotti.iquir/SCF2/01_Mentol04_OptB_NMR_benzene.gjc
 Output=/home/asarotti.iquir/SCF2/01_Mentol04_OptB_NMR_benzene.log
 Initial command:
 /opt/ohpc/pub/apps/software/Gaussian/09/AMD64.SSE4a-enabled/g09/l1.exe /local/asarotti.iquir/Gau-1834252.inp -scrdir=/local/asarotti.iquir/
 Entering Link 1 = /opt/ohpc/pub/apps/software/Gaussian/09/AMD64.SSE4a-enabled/g09/l1.exe PID=   1834253.
  
 Copyright (c) 1988,1990,1992,1993,1995,1998,2003,2009,2011,
            Gaussian, Inc.  All Rights Reserved.
  
 This is part of the Gaussian(R) 09 program.  It is based on
 the Gaussian(R) 03 system (copyright 2003, Gaussian, Inc.),
 the Gaussian(R) 98 system (copyright 1998, Gaussian, Inc.),
 the Gaussian(R) 94 system (copyright 1995, Gaussian, Inc.),
 the Gaussian 92(TM) system (copyright 1992, Gaussian, Inc.),
 the Gaussian 90(TM) system (copyright 1990, Gaussian, Inc.),
 the Gaussian 88(TM) system (copyright 1988, Gaussian, Inc.),
 the Gaussian 86(TM) system (copyright 1986, Carnegie Mellon
 University), and the Gaussian 82(TM) system (copyright 1983,
 Carnegie Mellon University). Gaussian is a federally registered
 trademark of Gaussian, Inc.
  
 This software contains proprietary and confidential information,
 including trade secrets, belonging to Gaussian, Inc.
  
 This software is provided under written license and may be
 used, copied, transmitted, or stored only in accord with that
 written license.
  
 The following legend is applicable only to US Government
 contracts under FAR:
  
                    RESTRICTED RIGHTS LEGEND
  
 Use, reproduction and disclosure by the US Government is
 subject to restrictions as set forth in subparagraphs (a)
 and (c) of the Commercial Computer Software - Restricted
 Rights clause in FAR 52.227-19.
  
 Gaussian, Inc.
 340 Quinnipiac St., Bldg. 40, Wallingford CT 06492
  
  
 ---------------------------------------------------------------
 Warning -- This program may not be used in any manner that
 competes with the business of Gaussian, Inc. or will provide
 assistance to any competitor of Gaussian, Inc.  The licensee
 of this program is prohibited from giving any competitor of
 Gaussian, Inc. access to this program.  By using this program,
 the user acknowledges that Gaussian, Inc. is engaged in the
 business of creating and licensing software in the field of
 computational chemistry and represents and warrants to the
 licensee that it is not a competitor of Gaussian, Inc. and that
 it will not use this program in any manner prohibited above.
 ---------------------------------------------------------------
  

 Cite this work as:
 Gaussian 09, Revision C.01,
 M. J. Frisch, G. W. Trucks, H. B. Schlegel, G. E. Scuseria, 
 M. A. Robb, J. R. Cheeseman, G. Scalmani, V. Barone, B. Mennucci, 
 G. A. Petersson, H. Nakatsuji, M. Caricato, X. Li, H. P. Hratchian, 
 A. F. Izmaylov, J. Bloino, G. Zheng, J. L. Sonnenberg, M. Hada, 
 M. Ehara, K. Toyota, R. Fukuda, J. Hasegawa, M. Ishida, T. Nakajima, 
 Y. Honda, O. Kitao, H. Nakai, T. Vreven, J. A. Montgomery, Jr., 
 J. E. Peralta, F. Ogliaro, M. Bearpark, J. J. Heyd, E. Brothers, 
 K. N. Kudin, V. N. Staroverov, T. Keith, R. Kobayashi, J. Normand, 
 K. Raghavachari, A. Rendell, J. C. Burant, S. S. Iyengar, J. Tomasi, 
 M. Cossi, N. Rega, J. M. Millam, M. Klene, J. E. Knox, J. B. Cross, 
 V. Bakken, C. Adamo, J. Jaramillo, R. Gomperts, R. E. Stratmann, 
 O. Yazyev, A. J. Austin, R. Cammi, C. Pomelli, J. W. Ochterski, 
 R. L. Martin, K. Morokuma, V. G. Zakrzewski, G. A. Voth, 
 P. Salvador, J. J. Dannenberg, S. Dapprich, A. D. Daniels, 
 O. Farkas, J. B. Foresman, J. V. Ortiz, J. Cioslowski, 
 and D. J. Fox, Gaussian, Inc., Wallingford CT, 2010.
 
 ******************************************
 Gaussian 09:  AM64L-G09RevC.01 23-Sep-2011
                19-Sep-2024 
 ******************************************
 %nprocshared=4
 Will use up to    4 processors via shared memory.
 %mem=100mw
 --------------------------------------------------
 # mPW1PW91/6-31+G** nmr scrf=(pcm,solvent=benzene)
 --------------------------------------------------
 1/38=1/1;
 2/12=2,17=6,18=5,40=1/2;
 3/5=1,6=6,7=111,11=2,16=1,25=1,30=1,70=2201,72=12,74=-7/1,2,8,3;
 4//1;
 5/5=2,38=5,53=12/2;
 8/6=1,10=90,11=11/1;
 10/13=100,45=16/2;
 6/7=2,8=2,9=2,10=2,28=1/1;
 99/9=1/99;
 -------
 comment
 -------
 Charge =  0 Multiplicity = 1
 Symbolic Z-Matrix:
 6                     2.29575  -0.08249   0.32472 
 6                    -0.07336   0.88521   0.30752 
 6                     0.26199  -1.57693  -0.02964 
 6                    -0.62856  -0.36701  -0.39066 
 6                     1.7451   -1.34814  -0.35241 
 6                     1.40452   1.11716  -0.03629 
 6                     3.76447   0.17109  -0.03329 
 8                    -0.8647    2.01321  -0.08081 
 6                    -2.13331  -0.66916  -0.11389 
 6                    -3.07761   0.11669  -1.0389 
 6                    -2.54044  -0.48336   1.35713 
 1                     2.23293  -0.2326    1.41479 
 1                    -0.1551    0.73861   1.39821 
 1                    -0.10252  -2.46138  -0.56729 
 1                     0.15575  -1.80401   1.04166 
 1                    -0.52425  -0.19365  -1.47314 
 1                     1.86937  -1.25081  -1.44187 
 1                     2.33566  -2.22312  -0.04926 
 1                     1.48017   1.32709  -1.11313 
 1                     1.76013   2.01887   0.48628 
 1                     3.8837    0.32971  -1.11279 
 1                     4.15352   1.05962   0.47858 
 1                     4.39429  -0.68103   0.24925 
 1                    -0.4873    2.79485   0.35287 
 1                    -2.26866  -1.73514  -0.35404 
 1                    -2.9945    1.19202  -0.86254 
 1                    -2.84219  -0.07129  -2.0938 
 1                    -4.11943  -0.18524  -0.87222 
 1                    -2.51547   0.57494   1.63956 
 1                    -1.88678  -1.03638   2.04261 
 1                    -3.56307  -0.84509   1.51697 
 
                          Input orientation:                          
 ---------------------------------------------------------------------
 Center     Atomic      Atomic             Coordinates (Angstroms)
 Number     Number       Type             X           Y           Z
 ---------------------------------------------------------------------
      1          6           0        2.295753   -0.082486    0.324724
      2          6           0       -0.073364    0.885205    0.307521
      3          6           0        0.261993   -1.576925   -0.029635
      4          6           0       -0.628558   -0.367008   -0.390661
      5          6           0        1.745097   -1.348135   -0.352414
      6          6           0        1.404522    1.117157   -0.036291
      7          6           0        3.764473    0.171085   -0.033290
      8          8           0       -0.864698    2.013207   -0.080807
      9          6           0       -2.133311   -0.669159   -0.113892
     10          6           0       -3.077605    0.116688   -1.038899
     11          6           0       -2.540444   -0.483362    1.357129
     12          1           0        2.232931   -0.232599    1.414787
     13          1           0       -0.155095    0.738608    1.398213
     14          1           0       -0.102518   -2.461382   -0.567288
     15          1           0        0.155748   -1.804006    1.041659
     16          1           0       -0.524247   -0.193648   -1.473142
     17          1           0        1.869368   -1.250808   -1.441866
     18          1           0        2.335656   -2.223118   -0.049257
     19          1           0        1.480166    1.327090   -1.113134
     20          1           0        1.760130    2.018873    0.486279
     21          1           0        3.883701    0.329705   -1.112789
     22          1           0        4.153515    1.059622    0.478580
     23          1           0        4.394287   -0.681033    0.249253
     24          1           0       -0.487304    2.794850    0.352874
     25          1           0       -2.268657   -1.735135   -0.354041
     26          1           0       -2.994496    1.192018   -0.862541
     27          1           0       -2.842186   -0.071292   -2.093803
     28          1           0       -4.119428   -0.185236   -0.872224
     29          1           0       -2.515471    0.574940    1.639564
     30          1           0       -1.886783   -1.036383    2.042612
     31          1           0       -3.563071   -0.845085    1.516968
 ---------------------------------------------------------------------
                    Distance matrix (angstroms):
                    1          2          3          4          5
     1  C    0.000000
     2  C    2.559187   0.000000
     3  C    2.548548   2.507633   0.000000
     4  C    3.023958   1.537445   1.545095   0.000000
     5  C    1.537402   2.954678   1.534969   2.568718   0.000000
     6  C    1.537455   1.534977   2.926345   2.541995   2.508703
     7  C    1.532844   3.918560   3.914450   4.440268   2.547106
     8  O    3.813769   1.431571   3.763124   2.411886   4.264202
     9  C    4.489229   2.614769   2.562932   1.559544   3.944610
    10  C    5.547262   3.380670   3.878125   2.579148   5.086789
    11  C    4.961387   3.010172   3.312499   2.592994   4.694276
    12  H    1.102142   2.791867   2.788936   3.386123   2.146020
    13  H    2.798791   1.103531   2.752164   2.155603   3.321132
    14  H    3.493785   3.459160   1.097362   2.166637   2.167757
    15  H    2.838529   2.797017   1.100238   2.175233   2.162704
    16  H    3.346204   2.130254   2.148334   1.101226   2.781869
    17  H    2.160468   3.375961   2.164348   2.850573   1.100828
    18  H    2.173421   3.948714   2.172102   3.514010   1.098298
    19  H    2.172446   2.151041   3.330348   2.799759   2.793870
    20  H    2.174558   2.163067   3.929420   3.488163   3.469924
    21  H    2.181267   4.240781   4.233820   4.622484   2.822578
    22  H    2.186175   4.233933   4.727960   5.065479   3.505470
    23  H    2.183529   4.734596   4.237482   5.073172   2.797362
    24  H    4.003156   1.954520   4.451986   3.251176   4.758715
    25  H    4.901613   3.481832   2.556259   2.136127   4.032368
    26  H    5.569622   3.161675   4.354940   2.872437   5.401514
    27  H    5.678716   3.787825   4.020404   2.808610   5.070101
    28  H    6.526698   4.348365   4.673714   3.528614   6.001266
    29  H    5.030794   2.799016   3.889866   2.927374   5.081204
    30  H    4.621111   3.160938   3.033749   2.819931   4.361639
    31  H    6.027340   4.078568   4.190308   3.532559   5.650159
                    6          7          8          9         10
     6  C    0.000000
     7  C    2.542524   0.000000
     8  O    2.440133   4.982459   0.000000
     9  C    3.963989   5.957882   2.967417   0.000000
    10  C    4.700598   6.915796   3.067846   1.537818   0.000000
    11  C    4.479513   6.489495   3.332963   1.537589   2.527756
    12  H    2.147960   2.146045   4.108011   4.646667   5.860407
    13  H    2.152558   4.211211   2.077412   2.860351   3.855822
    14  H    3.919065   4.708360   4.565033   2.746225   3.964846
    15  H    3.354789   4.251987   4.107597   2.804098   4.297948
    16  H    2.739142   4.538648   2.631485   2.159342   2.608546
    17  H    2.792666   2.756318   4.470055   4.257143   5.148298
    18  H    3.467653   2.788186   5.309398   4.731874   5.979756
    19  H    1.099720   2.778573   2.652328   4.247436   4.716340
    20  H    1.101194   2.775187   2.685394   4.769130   5.417394
    21  H    2.815183   1.097585   5.142612   6.180611   6.964956
    22  H    2.797385   1.096751   5.138550   6.547052   7.448554
    23  H    3.500531   1.096632   5.918175   6.537702   7.623966
    24  H    2.558341   5.011075   0.970294   3.863492   3.977341
    25  H    4.661414   6.335236   4.011960   1.101043   2.133700
    26  H    4.476567   6.885755   2.412778   2.183139   1.092860
    27  H    4.866240   6.924767   3.508240   2.186320   1.097078
    28  H    5.736640   7.936414   4.006590   2.180346   1.097421
    29  H    4.297538   6.511470   2.784482   2.183675   2.774915
    30  H    4.448849   6.140362   3.854032   2.201395   3.499048
    31  H    5.562372   7.558360   4.243104   2.175975   2.773651
                   11         12         13         14         15
    11  C    0.000000
    12  H    4.780305   0.000000
    13  H    2.680446   2.578020   0.000000
    14  H    3.682313   3.788194   3.755781   0.000000
    15  H    3.018787   2.631204   2.586241   1.757144   0.000000
    16  H    3.487036   3.992954   3.041390   2.478113   3.062657
    17  H    5.279184   3.054406   4.015255   2.473603   3.067640
    18  H    5.364795   2.473084   4.131686   2.503961   2.473409
    19  H    5.054230   3.064257   3.054055   4.141903   4.025044
    20  H    5.051188   2.480886   2.477658   4.965093   4.182929
    21  H    6.930455   3.070809   4.773280   4.896701   4.805414
    22  H    6.925441   2.496991   4.417340   5.621844   4.949703
    23  H    7.025451   2.496202   4.902282   4.904859   4.455804
    24  H    3.996322   4.206279   2.330499   5.350022   4.694403
    25  H    2.137500   5.064648   3.695530   2.294573   2.798296
    26  H    2.817800   5.877223   3.657702   4.668837   4.746175
    27  H    3.488521   6.171956   4.480019   3.943166   4.671298
    28  H    2.748106   6.751676   4.660934   4.627028   4.955855
    29  H    1.095626   4.821822   2.378321   4.462263   3.626608
    30  H    1.096810   4.244087   2.562145   3.467824   2.400643
    31  H    1.096430   5.829170   3.759852   4.351088   3.869763
                   16         17         18         19         20
    16  H    0.000000
    17  H    2.616860   0.000000
    18  H    3.784870   1.761298   0.000000
    19  H    2.541638   2.627756   3.803640   0.000000
    20  H    3.735366   3.797432   4.314223   1.764955   0.000000
    21  H    4.453511   2.581443   3.169298   2.602260   3.149581
    22  H    5.221241   3.774060   3.789407   3.122801   2.578471
    23  H    5.234135   3.091883   2.589420   3.792197   3.779478
    24  H    3.502402   5.014214   5.771552   2.859097   2.381364
    25  H    2.582932   4.305948   4.640121   4.899706   5.570443
    26  H    2.897419   5.473590   6.382406   4.483708   5.010935
    27  H    2.402714   4.900512   5.968297   4.647570   5.675115
    28  H    3.645065   6.109469   6.818970   5.805224   6.424393
    29  H    3.774207   5.661747   5.849331   4.910009   4.657872
    30  H    3.863578   5.127986   4.859346   5.184697   5.005670
    31  H    4.312723   6.199250   6.256758   6.088515   6.131969
                   21         22         23         24         25
    21  H    0.000000
    22  H    1.771450   0.000000
    23  H    1.771284   1.772129   0.000000
    24  H    5.227886   4.956210   5.993532   0.000000
    25  H    6.533818   7.053242   6.772733   4.918710   0.000000
    26  H    6.936555   7.273939   7.703150   3.214392   3.058372
    27  H    6.808872   7.538962   7.630743   4.443700   2.474688
    28  H    8.023285   8.474428   8.601562   4.855317   2.469019
    29  H    6.970293   6.786617   7.159273   3.270632   3.061344
    30  H    6.717234   6.582145   6.541731   4.414986   2.525476
    31  H    7.984370   8.015726   8.059377   4.905567   2.443025
                   26         27         28         29         30
    26  H    0.000000
    27  H    1.770637   0.000000
    28  H    1.778312   1.771041   0.000000
    29  H    2.621217   3.802945   3.075650   0.000000
    30  H    3.825273   4.353633   3.769008   1.775967   0.000000
    31  H    3.183572   3.762459   2.540309   1.768889   1.767155
                   31
    31  H    0.000000
 Stoichiometry    C10H20O
 Framework group  C1[X(C10H20O)]
 Deg. of freedom    87
 Full point group                 C1      NOp   1
 Largest Abelian subgroup         C1      NOp   1
 Largest concise Abelian subgroup C1      NOp   1
                         Standard orientation:                         
 ---------------------------------------------------------------------
 Center     Atomic      Atomic             Coordinates (Angstroms)
 Number     Number       Type             X           Y           Z
 ---------------------------------------------------------------------
      1          6           0        2.295753   -0.082486    0.324724
      2          6           0       -0.073364    0.885205    0.307521
      3          6           0        0.261993   -1.576925   -0.029635
      4          6           0       -0.628558   -0.367008   -0.390661
      5          6           0        1.745097   -1.348135   -0.352414
      6          6           0        1.404522    1.117157   -0.036291
      7          6           0        3.764473    0.171085   -0.033290
      8          8           0       -0.864698    2.013207   -0.080807
      9          6           0       -2.133311   -0.669159   -0.113892
     10          6           0       -3.077605    0.116688   -1.038899
     11          6           0       -2.540444   -0.483362    1.357129
     12          1           0        2.232931   -0.232599    1.414787
     13          1           0       -0.155095    0.738608    1.398213
     14          1           0       -0.102518   -2.461382   -0.567288
     15          1           0        0.155748   -1.804006    1.041659
     16          1           0       -0.524247   -0.193648   -1.473142
     17          1           0        1.869368   -1.250808   -1.441866
     18          1           0        2.335656   -2.223118   -0.049257
     19          1           0        1.480166    1.327090   -1.113134
     20          1           0        1.760130    2.018873    0.486279
     21          1           0        3.883701    0.329705   -1.112789
     22          1           0        4.153515    1.059622    0.478580
     23          1           0        4.394287   -0.681033    0.249253
     24          1           0       -0.487304    2.794850    0.352874
     25          1           0       -2.268657   -1.735135   -0.354041
     26          1           0       -2.994496    1.192018   -0.862541
     27          1           0       -2.842186   -0.071292   -2.093803
     28          1           0       -4.119428   -0.185236   -0.872224
     29          1           0       -2.515471    0.574940    1.639564
     30          1           0       -1.886783   -1.036383    2.042612
     31          1           0       -3.563071   -0.845085    1.516968
 ---------------------------------------------------------------------
 Rotational constants (GHZ):      1.9507146      0.6647249      0.5736790
 Standard basis: 6-31+G(d,p) (6D, 7F)
 There are   309 symmetry adapted basis functions of A   symmetry.
 Integral buffers will be    131072 words long.
 Raffenetti 2 integral format.
 Two-electron integral symmetry is turned on.
   309 basis functions,   492 primitive gaussians,   309 cartesian basis functions
    44 alpha electrons       44 beta electrons
       nuclear repulsion energy       689.2870986670 Hartrees.
 NAtoms=   31 NActive=   31 NUniq=   31 SFac= 1.00D+00 NAtFMM=   60 NAOKFM=F Big=F
 ------------------------------------------------------------------------------
 Polarizable Continuum Model (PCM)
 =================================
 Model                : PCM.
 Atomic radii         : UFF (Universal Force Field).
 Polarization charges : Total charges.
 Charge compensation  : None.
 Solution method      : Matrix inversion.
 Cavity type          : Scaled VdW (van der Waals Surface) (Alpha=1.100).
 Cavity algorithm     : GePol (No added spheres)
                        Default sphere list used, NSphG=   31.
                        Lebedev-Laikov grids with approx.  5.0 points / Ang**2.
                        Smoothing algorithm: Karplus/York (Gamma=1.0000).
                        Polarization charges: spherical gaussians, with
                                              point-specific exponents (IZeta= 3).
                        Self-potential: point-specific (ISelfS= 7).
                        Self-field    : sphere-specific E.n sum rule (ISelfD= 2).
 Solvent              : Benzene, Eps=   2.270600 Eps(inf)=   2.253301
 ------------------------------------------------------------------------------
 One-electron integrals computed using PRISM.
 NBasis=   309 RedAO= T  NBF=   309
 NBsUse=   309 1.00D-06 NBFU=   309
 Harris functional with IExCor=  908 diagonalized for initial guess.
 ExpMin= 4.38D-02 ExpMax= 5.48D+03 ExpMxC= 8.25D+02 IAcc=2 IRadAn=         4 AccDes= 0.00D+00
 HarFok:  IExCor=  908 AccDes= 0.00D+00 IRadAn=         4 IDoV= 1
 ScaDFX=  1.000000  1.000000  1.000000  1.000000
 FoFCou: FMM=F IPFlag=           0 FMFlag=      100000 FMFlg1=           0
         NFxFlg=           0 DoJE=T BraDBF=F KetDBF=T FulRan=T
         Omega=  0.000000  0.000000  1.000000  0.000000  0.000000 ICntrl=     500 IOpCl=  0
         NMat0=    1 NMatS0=    1 NMatT0=    0 NMatD0=    1 NMtDS0=    0 NMtDT0=    0
         I1Cent=           4 NGrid=           0.
 Petite list used in FoFCou.
 Initial guess orbital symmetries:
       Occupied  (A) (A) (A) (A) (A) (A) (A) (A) (A) (A) (A) (A)
                 (A) (A) (A) (A) (A) (A) (A) (A) (A) (A) (A) (A)
                 (A) (A) (A) (A) (A) (A) (A) (A) (A) (A) (A) (A)
                 (A) (A) (A) (A) (A) (A) (A) (A)
       Virtual   (A) (A) (A) (A) (A) (A) (A) (A) (A) (A) (A) (A)
                 (A) (A) (A) (A) (A) (A) (A) (A) (A) (A) (A) (A)
                 (A) (A) (A) (A) (A) (A) (A) (A) (A) (A) (A) (A)
                 (A) (A) (A) (A) (A) (A) (A) (A) (A) (A) (A) (A)
                 (A) (A) (A) (A) (A) (A) (A) (A) (A) (A) (A) (A)
                 (A) (A) (A) (A) (A) (A) (A) (A) (A) (A) (A) (A)
                 (A) (A) (A) (A) (A) (A) (A) (A) (A) (A) (A) (A)
                 (A) (A) (A) (A) (A) (A) (A) (A) (A) (A) (A) (A)
                 (A) (A) (A) (A) (A) (A) (A) (A) (A) (A) (A) (A)
                 (A) (A) (A) (A) (A) (A) (A) (A) (A) (A) (A) (A)
                 (A) (A) (A) (A) (A) (A) (A) (A) (A) (A) (A) (A)
                 (A) (A) (A) (A) (A) (A) (A) (A) (A) (A) (A) (A)
                 (A) (A) (A) (A) (A) (A) (A) (A) (A) (A) (A) (A)
                 (A) (A) (A) (A) (A) (A) (A) (A) (A) (A) (A) (A)
                 (A) (A) (A) (A) (A) (A) (A) (A) (A) (A) (A) (A)
                 (A) (A) (A) (A) (A) (A) (A) (A) (A) (A) (A) (A)
                 (A) (A) (A) (A) (A) (A) (A) (A) (A) (A) (A) (A)
                 (A) (A) (A) (A) (A) (A) (A) (A) (A) (A) (A) (A)
                 (A) (A) (A) (A) (A) (A) (A) (A) (A) (A) (A) (A)
                 (A) (A) (A) (A) (A) (A) (A) (A) (A) (A) (A) (A)
                 (A) (A) (A) (A) (A) (A) (A) (A) (A) (A) (A) (A)
                 (A) (A) (A) (A) (A) (A) (A) (A) (A) (A) (A) (A)
                 (A)
 The electronic state of the initial guess is 1-A.
 Requested convergence on RMS density matrix=1.00D-08 within 128 cycles.
 Requested convergence on MAX density matrix=1.00D-06.
 Requested convergence on             energy=1.00D-06.
 No special actions if energy rises.
 Error on total polarization charges =  0.00949
 SCF Done:  E(RmPW1PW91) =  -468.284159349     A.U. after   12 cycles
             Convg  =    0.9696D-08             -V/T =  2.0099
 Range of M.O.s used for correlation:     1   309
 NBasis=   309 NAE=    44 NBE=    44 NFC=     0 NFV=     0
 NROrb=    309 NOA=    44 NOB=    44 NVA=   265 NVB=   265

 **** Warning!!: The largest alpha MO coefficient is  0.79537957D+02

 NEqPCM:  Using equilibrium solvation (IEInf=0, Eps=   2.2706, EpsInf=   2.2533)
          Differentiating once with respect to magnetic field using GIAOs.
          Electric field/nuclear overlap derivatives assumed to be zero.
 FoFCou: FMM=F IPFlag=           0 FMFlag=    10101102 FMFlg1=           0
         NFxFlg=    40000000 DoJE=F BraDBF=F KetDBF=T FulRan=T
         Omega=  0.000000  0.000000  1.000000  0.000000  0.000000 ICntrl=    6100 IOpCl=  0
         NMat0=    1 NMatS0=    1 NMatT0=    0 NMatD0=    1 NMtDS0=    0 NMtDT0=    0
         I1Cent=           7 NGrid=        1926.
 Symmetry not used in FoFCou.
          There are     3 degrees of freedom in the 1st order CPHF.  IDoFFX=0.
      3 vectors produced by pass  0 Test12= 3.89D-13 3.33D-08 XBig12= 3.77D+01 1.93D+00.
 AX will form     3 AO Fock derivatives at one time.
      3 vectors produced by pass  1 Test12= 3.89D-13 3.33D-08 XBig12= 9.48D-02 8.92D-02.
      3 vectors produced by pass  2 Test12= 3.89D-13 3.33D-08 XBig12= 3.06D-04 5.59D-03.
      3 vectors produced by pass  3 Test12= 3.89D-13 3.33D-08 XBig12= 1.04D-06 2.34D-04.
      3 vectors produced by pass  4 Test12= 3.89D-13 3.33D-08 XBig12= 2.68D-09 8.83D-06.
      3 vectors produced by pass  5 Test12= 3.89D-13 3.33D-08 XBig12= 6.60D-12 4.48D-07.
 Inverted reduced A of dimension    18 with in-core refinement.
 Calculating GIAO nuclear magnetic shielding tensors.
 SCF GIAO Magnetic shielding tensor (ppm):
      1  C    Isotropic =   162.3281   Anisotropy =    10.4537
   XX=   164.8686   YX=     2.7683   ZX=    -0.7341
   XY=     6.5669   YY=   164.2976   ZY=     1.7042
   XZ=    -1.4074   YZ=     2.4482   ZZ=   157.8180
   Eigenvalues:   156.3628   161.3243   169.2972
      2  C    Isotropic =   122.3656   Anisotropy =    53.8573
   XX=   123.0346   YX=   -17.9153   ZX=     7.9762
   XY=   -19.2253   YY=   141.7015   ZY=   -11.3830
   XZ=    10.5770   YZ=   -16.9237   ZZ=   102.3607
   Eigenvalues:    97.2286   111.5977   158.2705
      3  C    Isotropic =   162.5003   Anisotropy =    23.9436
   XX=   178.1637   YX=     1.4689   ZX=    -0.6013
   XY=    -4.5092   YY=   167.2037   ZY=    -1.2717
   XZ=     4.1575   YZ=     0.2783   ZZ=   142.1335
   Eigenvalues:   142.0389   166.9993   178.4627
      4  C    Isotropic =   147.0198   Anisotropy =    13.8365
   XX=   151.8895   YX=     4.5123   ZX=    -2.8178
   XY=     0.8616   YY=   139.3510   ZY=    -1.8897
   XZ=    -5.5016   YZ=    -5.2003   ZZ=   149.8190
   Eigenvalues:   138.1119   146.7035   156.2441
      5  C    Isotropic =   160.1832   Anisotropy =    20.7797
   XX=   163.5523   YX=     8.1257   ZX=    -1.8151
   XY=    12.0821   YY=   162.8575   ZY=     5.3595
   XZ=     4.0960   YZ=     3.1191   ZZ=   154.1398
   Eigenvalues:   151.0337   155.4795   174.0363
      6  C    Isotropic =   149.0652   Anisotropy =    38.2770
   XX=   169.8827   YX=   -13.6436   ZX=    -4.1215
   XY=    -9.6422   YY=   145.6107   ZY=    -8.1389
   XZ=    -2.2023   YZ=    -2.8558   ZZ=   131.7023
   Eigenvalues:   128.5097   144.1028   174.5832
      7  C    Isotropic =   173.1768   Anisotropy =    37.9646
   XX=   196.8458   YX=     5.2211   ZX=    -2.7123
   XY=     5.8388   YY=   164.0355   ZY=     0.8111
   XZ=    -8.4471   YZ=     0.4728   ZZ=   158.6492
   Eigenvalues:   157.5043   163.5396   198.4866
      8  O    Isotropic =   272.7104   Anisotropy =    61.6452
   XX=   267.0042   YX=    13.2864   ZX=     7.0387
   XY=    -6.0851   YY=   308.6388   ZY=    11.6272
   XZ=    12.3219   YZ=    23.7102   ZZ=   242.4882
   Eigenvalues:   235.7138   268.6102   313.8072
      9  C    Isotropic =   158.6351   Anisotropy =    22.9291
   XX=   173.5813   YX=     2.0365   ZX=     1.2431
   XY=     2.4676   YY=   157.1911   ZY=    -0.4115
   XZ=    -3.4347   YZ=     1.4272   ZZ=   145.1328
   Eigenvalues:   145.0612   156.9229   173.9212
     10  C    Isotropic =   170.6233   Anisotropy =    36.5641
   XX=   179.7185   YX=    -8.3769   ZX=    13.0433
   XY=   -12.2257   YY=   157.1480   ZY=   -13.1851
   XZ=     9.3031   YZ=    -9.9874   ZZ=   175.0034
   Eigenvalues:   150.6059   166.2646   194.9994
     11  C    Isotropic =   178.7624   Anisotropy =    23.4768
   XX=   173.1408   YX=    -0.5786   ZX=    -6.0464
   XY=    -1.6672   YY=   169.4798   ZY=     1.9375
   XZ=    -1.7190   YZ=    -0.3942   ZZ=   193.6665
   Eigenvalues:   169.1582   172.7154   194.4136
     12  H    Isotropic =    30.1305   Anisotropy =     6.4122
   XX=    30.3258   YX=     0.2604   ZX=     1.4342
   XY=    -0.1799   YY=    26.2096   ZY=    -1.1068
   XZ=     1.1834   YZ=    -0.9781   ZZ=    33.8561
   Eigenvalues:    26.0588    29.9274    34.4053
     13  H    Isotropic =    27.9115   Anisotropy =     2.1710
   XX=    28.9197   YX=    -0.7653   ZX=     0.0461
   XY=    -0.4466   YY=    26.5575   ZY=    -0.8040
   XZ=    -1.2656   YZ=     0.5361   ZZ=    28.2571
   Eigenvalues:    26.3690    28.0066    29.3588
     14  H    Isotropic =    30.1997   Anisotropy =     8.7525
   XX=    30.6901   YX=     1.4144   ZX=     0.8756
   XY=     1.6345   YY=    34.2609   ZY=     3.8283
   XZ=     0.0472   YZ=     3.3528   ZZ=    25.6482
   Eigenvalues:    24.3465    30.2179    36.0347
     15  H    Isotropic =    30.2490   Anisotropy =     6.0109
   XX=    30.8494   YX=    -1.1691   ZX=    -1.6639
   XY=    -0.2439   YY=    29.2883   ZY=    -4.4169
   XZ=    -1.1568   YZ=    -3.8542   ZZ=    30.6093
   Eigenvalues:    25.3724    31.1182    34.2563
     16  H    Isotropic =    30.2791   Anisotropy =     3.7134
   XX=    31.9938   YX=    -0.5504   ZX=     0.1578
   XY=    -0.2117   YY=    26.3775   ZY=    -0.2345
   XZ=     0.6608   YZ=    -0.6565   ZZ=    32.4662
   Eigenvalues:    26.3233    31.7594    32.7547
     17  H    Isotropic =    30.5832   Anisotropy =     6.9465
   XX=    30.7706   YX=     0.3693   ZX=    -2.6074
   XY=    -0.1717   YY=    27.7395   ZY=     2.9918
   XZ=    -1.6695   YZ=     2.4195   ZZ=    33.2396
   Eigenvalues:    26.4218    30.1137    35.2142
     18  H    Isotropic =    30.0367   Anisotropy =     9.1779
   XX=    31.5131   YX=    -3.0973   ZX=     0.6543
   XY=    -3.2913   YY=    33.8239   ZY=    -0.7691
   XZ=     0.3739   YZ=    -0.9820   ZZ=    24.7731
   Eigenvalues:    24.6816    29.2731    36.1553
     19  H    Isotropic =    30.4571   Anisotropy =     4.6854
   XX=    30.8776   YX=     0.5687   ZX=    -1.4201
   XY=     0.2180   YY=    29.8048   ZY=    -3.3459
   XZ=    -0.6390   YZ=    -2.4522   ZZ=    30.6888
   Eigenvalues:    27.2737    30.5169    33.5807
     20  H    Isotropic =    30.0882   Anisotropy =     6.3953
   XX=    30.8696   YX=     1.1895   ZX=     0.8195
   XY=     0.9654   YY=    32.8821   ZY=     2.9501
   XZ=     0.9048   YZ=     2.4036   ZZ=    26.5129
   Eigenvalues:    25.4997    30.4132    34.3518
     21  H    Isotropic =    30.9299   Anisotropy =     8.4001
   XX=    31.9787   YX=     1.0592   ZX=    -4.0255
   XY=     0.9716   YY=    27.4510   ZY=    -1.3405
   XZ=    -2.9813   YZ=    -1.1895   ZZ=    33.3601
   Eigenvalues:    27.1610    29.0987    36.5300
     22  H    Isotropic =    30.6315   Anisotropy =    10.5019
   XX=    33.3202   YX=     4.8186   ZX=     2.2972
   XY=     3.6001   YY=    31.1194   ZY=     3.0904
   XZ=     1.7393   YZ=     2.3937   ZZ=    27.4549
   Eigenvalues:    25.9789    28.2828    37.6327
     23  H    Isotropic =    30.5420   Anisotropy =    10.6521
   XX=    35.4344   YX=    -4.4146   ZX=     1.6833
   XY=    -3.1175   YY=    29.8756   ZY=    -1.5432
   XZ=     1.2228   YZ=    -0.9786   ZZ=    26.3161
   Eigenvalues:    25.9047    28.0780    37.6434
     24  H    Isotropic =    31.0080   Anisotropy =    18.1084
   XX=    27.0468   YX=     1.4774   ZX=     3.1474
   XY=     2.2774   YY=    40.8492   ZY=     6.1297
   XZ=     2.8272   YZ=     5.0006   ZZ=    25.1281
   Eigenvalues:    22.2021    27.7418    43.0803
     25  H    Isotropic =    30.1209   Anisotropy =     6.6396
   XX=    29.8488   YX=     1.2784   ZX=     0.9875
   XY=     0.8827   YY=    33.7017   ZY=     2.1531
   XZ=     0.7683   YZ=     1.6956   ZZ=    26.8123
   Eigenvalues:    26.2142    29.6013    34.5474
     26  H    Isotropic =    29.7416   Anisotropy =     5.7273
   XX=    30.1301   YX=    -0.7284   ZX=     2.4517
   XY=    -0.2406   YY=    33.2462   ZY=    -0.4685
   XZ=     2.8158   YZ=    -1.1494   ZZ=    25.8485
   Eigenvalues:    24.5635    31.1015    33.5598
     27  H    Isotropic =    30.5455   Anisotropy =     9.3530
   XX=    29.1474   YX=    -0.6036   ZX=     2.8530
   XY=    -0.1981   YY=    26.3202   ZY=    -0.3508
   XZ=     1.4682   YZ=     0.6955   ZZ=    36.1689
   Eigenvalues:    26.2384    28.6173    36.7808
     28  H    Isotropic =    30.7551   Anisotropy =    11.0794
   XX=    37.6855   YX=     1.4913   ZX=     1.5699
   XY=     0.3721   YY=    26.5060   ZY=    -0.5493
   XZ=     2.4466   YZ=    -0.7706   ZZ=    28.0737
   Eigenvalues:    26.0339    28.0899    38.1414
     29  H    Isotropic =    30.5131   Anisotropy =     6.9937
   XX=    28.7577   YX=     0.1301   ZX=    -2.3961
   XY=     0.3783   YY=    32.4393   ZY=     3.0178
   XZ=    -2.5491   YZ=     3.6833   ZZ=    30.3422
   Eigenvalues:    26.0580    30.3057    35.1756
     30  H    Isotropic =    30.5634   Anisotropy =     8.5257
   XX=    30.0355   YX=    -1.7086   ZX=    -0.0643
   XY=    -1.4159   YY=    27.4804   ZY=    -3.7836
   XZ=     1.0991   YZ=    -4.2017   ZZ=    34.1744
   Eigenvalues:    25.3066    30.1364    36.2473
     31  H    Isotropic =    30.7835   Anisotropy =    10.8789
   XX=    35.0540   YX=     3.1130   ZX=    -3.2899
   XY=     2.9178   YY=    27.2934   ZY=    -1.4641
   XZ=    -4.1213   YZ=    -1.3129   ZZ=    30.0029
   Eigenvalues:    26.2538    28.0606    38.0360
 End of Minotr Frequency-dependent properties file   721 does not exist.
 End of Minotr Frequency-dependent properties file   722 does not exist.

 **********************************************************************

            Population analysis using the SCF density.

 **********************************************************************

 Orbital symmetries:
       Occupied  (A) (A) (A) (A) (A) (A) (A) (A) (A) (A) (A) (A)
                 (A) (A) (A) (A) (A) (A) (A) (A) (A) (A) (A) (A)
                 (A) (A) (A) (A) (A) (A) (A) (A) (A) (A) (A) (A)
                 (A) (A) (A) (A) (A) (A) (A) (A)
       Virtual   (A) (A) (A) (A) (A) (A) (A) (A) (A) (A) (A) (A)
                 (A) (A) (A) (A) (A) (A) (A) (A) (A) (A) (A) (A)
                 (A) (A) (A) (A) (A) (A) (A) (A) (A) (A) (A) (A)
                 (A) (A) (A) (A) (A) (A) (A) (A) (A) (A) (A) (A)
                 (A) (A) (A) (A) (A) (A) (A) (A) (A) (A) (A) (A)
                 (A) (A) (A) (A) (A) (A) (A) (A) (A) (A) (A) (A)
                 (A) (A) (A) (A) (A) (A) (A) (A) (A) (A) (A) (A)
                 (A) (A) (A) (A) (A) (A) (A) (A) (A) (A) (A) (A)
                 (A) (A) (A) (A) (A) (A) (A) (A) (A) (A) (A) (A)
                 (A) (A) (A) (A) (A) (A) (A) (A) (A) (A) (A) (A)
                 (A) (A) (A) (A) (A) (A) (A) (A) (A) (A) (A) (A)
                 (A) (A) (A) (A) (A) (A) (A) (A) (A) (A) (A) (A)
                 (A) (A) (A) (A) (A) (A) (A) (A) (A) (A) (A) (A)
                 (A) (A) (A) (A) (A) (A) (A) (A) (A) (A) (A) (A)
                 (A) (A) (A) (A) (A) (A) (A) (A) (A) (A) (A) (A)
                 (A) (A) (A) (A) (A) (A) (A) (A) (A) (A) (A) (A)
                 (A) (A) (A) (A) (A) (A) (A) (A) (A) (A) (A) (A)
                 (A) (A) (A) (A) (A) (A) (A) (A) (A) (A) (A) (A)
                 (A) (A) (A) (A) (A) (A) (A) (A) (A) (A) (A) (A)
                 (A) (A) (A) (A) (A) (A) (A) (A) (A) (A) (A) (A)
                 (A) (A) (A) (A) (A) (A) (A) (A) (A) (A) (A) (A)
                 (A) (A) (A) (A) (A) (A) (A) (A) (A) (A) (A) (A)
                 (A)
 The electronic state is 1-A.
 Alpha  occ. eigenvalues --  -19.24489 -10.29416 -10.25274 -10.24646 -10.24562
 Alpha  occ. eigenvalues --  -10.24141 -10.24136 -10.24049 -10.23540 -10.22778
 Alpha  occ. eigenvalues --  -10.22050  -1.05033  -0.86154  -0.81975  -0.76638
 Alpha  occ. eigenvalues --   -0.75354  -0.69609  -0.69396  -0.63494  -0.61430
 Alpha  occ. eigenvalues --   -0.57715  -0.56031  -0.52168  -0.47985  -0.47798
 Alpha  occ. eigenvalues --   -0.46338  -0.45309  -0.43142  -0.42030  -0.41038
 Alpha  occ. eigenvalues --   -0.40045  -0.39758  -0.39154  -0.37935  -0.37166
 Alpha  occ. eigenvalues --   -0.36621  -0.35207  -0.34735  -0.33234  -0.32223
 Alpha  occ. eigenvalues --   -0.32168  -0.31230  -0.30043  -0.28091
 Alpha virt. eigenvalues --    0.00736   0.01688   0.01928   0.02522   0.03658
 Alpha virt. eigenvalues --    0.04472   0.04652   0.05017   0.05937   0.06428
 Alpha virt. eigenvalues --    0.06997   0.07433   0.08113   0.08839   0.09236
 Alpha virt. eigenvalues --    0.09733   0.09944   0.10387   0.10673   0.11366
 Alpha virt. eigenvalues --    0.12147   0.13391   0.13748   0.14447   0.14798
 Alpha virt. eigenvalues --    0.15545   0.15846   0.16131   0.16832   0.16976
 Alpha virt. eigenvalues --    0.18206   0.18885   0.19270   0.19868   0.20001
 Alpha virt. eigenvalues --    0.20434   0.21036   0.21511   0.21977   0.22316
 Alpha virt. eigenvalues --    0.22994   0.23260   0.23624   0.24536   0.24752
 Alpha virt. eigenvalues --    0.25098   0.25419   0.26587   0.27302   0.27670
 Alpha virt. eigenvalues --    0.27852   0.28042   0.29034   0.29585   0.30372
 Alpha virt. eigenvalues --    0.30882   0.31843   0.32029   0.32700   0.33909
 Alpha virt. eigenvalues --    0.34451   0.34716   0.35876   0.36589   0.37499
 Alpha virt. eigenvalues --    0.37810   0.38831   0.40551   0.40923   0.41814
 Alpha virt. eigenvalues --    0.42719   0.45044   0.46146   0.49628   0.52975
 Alpha virt. eigenvalues --    0.62078   0.62997   0.65212   0.66071   0.67757
 Alpha virt. eigenvalues --    0.68145   0.69189   0.70547   0.71178   0.72448
 Alpha virt. eigenvalues --    0.72593   0.74821   0.75377   0.76454   0.78037
 Alpha virt. eigenvalues --    0.78523   0.78790   0.80711   0.82660   0.84970
 Alpha virt. eigenvalues --    0.86882   0.87321   0.88169   0.88875   0.89829
 Alpha virt. eigenvalues --    0.92853   0.98148   0.98544   0.98838   0.99939
 Alpha virt. eigenvalues --    1.01058   1.01932   1.03264   1.03716   1.04877
 Alpha virt. eigenvalues --    1.05753   1.07183   1.09477   1.10733   1.11609
 Alpha virt. eigenvalues --    1.12247   1.13816   1.15150   1.15838   1.17280
 Alpha virt. eigenvalues --    1.17725   1.18732   1.19658   1.20246   1.21884
 Alpha virt. eigenvalues --    1.24045   1.25936   1.27829   1.30589   1.35285
 Alpha virt. eigenvalues --    1.36882   1.37748   1.39458   1.43121   1.45196
 Alpha virt. eigenvalues --    1.47366   1.48185   1.53731   1.54713   1.58021
 Alpha virt. eigenvalues --    1.59908   1.60295   1.63231   1.65848   1.67657
 Alpha virt. eigenvalues --    1.68372   1.73039   1.77525   1.77909   1.80918
 Alpha virt. eigenvalues --    1.82216   1.84743   1.85760   1.86843   1.88500
 Alpha virt. eigenvalues --    1.89773   1.90658   1.91587   1.93329   1.95195
 Alpha virt. eigenvalues --    1.96902   1.97204   1.98739   1.99813   2.03550
 Alpha virt. eigenvalues --    2.04853   2.05718   2.05911   2.07644   2.09295
 Alpha virt. eigenvalues --    2.10067   2.12097   2.12383   2.13127   2.14432
 Alpha virt. eigenvalues --    2.15918   2.17047   2.17865   2.18404   2.19686
 Alpha virt. eigenvalues --    2.20671   2.22249   2.23468   2.25862   2.28349
 Alpha virt. eigenvalues --    2.33676   2.34618   2.35785   2.36783   2.37810
 Alpha virt. eigenvalues --    2.38467   2.39166   2.40512   2.43232   2.47055
 Alpha virt. eigenvalues --    2.49091   2.50203   2.52848   2.54407   2.55416
 Alpha virt. eigenvalues --    2.58981   2.60424   2.62103   2.64337   2.65923
 Alpha virt. eigenvalues --    2.68111   2.68856   2.70615   2.72442   2.72699
 Alpha virt. eigenvalues --    2.73013   2.75570   2.77521   2.78605   2.79079
 Alpha virt. eigenvalues --    2.80663   2.82466   2.83568   2.85427   2.86769
 Alpha virt. eigenvalues --    2.88157   2.89400   2.90633   2.91097   2.93398
 Alpha virt. eigenvalues --    2.93917   2.94801   2.96456   2.97278   2.99179
 Alpha virt. eigenvalues --    3.00539   3.05266   3.07514   3.15180   3.29235
 Alpha virt. eigenvalues --    3.30580   3.31662   3.33880   3.37344   3.38241
 Alpha virt. eigenvalues --    3.41208   3.41891   3.44889   3.49026   3.50229
 Alpha virt. eigenvalues --    3.51334   3.53007   3.54243   3.54941   3.56264
 Alpha virt. eigenvalues --    3.58684   3.59483   3.61310   3.64913   4.34607
 Alpha virt. eigenvalues --    4.44639   4.50248   4.51085   4.55035   4.60910
 Alpha virt. eigenvalues --    4.66676   4.76732   4.83951   4.87116   4.88000
          Condensed to atoms (all electrons):
              1          2          3          4          5          6
     1  C    6.441703  -0.151001  -0.158244   0.289925   0.021479  -0.136907
     2  C   -0.151001   6.581094   0.292496  -0.790435  -0.222820  -0.391845
     3  C   -0.158244   0.292496   6.372379  -1.032846   0.044849   0.109961
     4  C    0.289925  -0.790435  -1.032846   8.761650  -0.130973  -0.397113
     5  C    0.021479  -0.222820   0.044849  -0.130973   5.945424  -0.028440
     6  C   -0.136907  -0.391845   0.109961  -0.397113  -0.028440   6.666874
     7  C   -0.313980  -0.114722  -0.115803   0.014721   0.122795   0.090347
     8  O   -0.030222   0.346126   0.073733  -0.321691   0.010804  -0.061297
     9  C   -0.052189   0.279955   0.520230  -1.297068  -0.064038   0.061936
    10  C    0.005502   0.000948  -0.099005   0.259911  -0.072731  -0.047732
    11  C    0.019530  -0.061785  -0.077709   0.161726   0.042562  -0.052140
    12  H    0.293363  -0.005440  -0.035575   0.025538  -0.017698  -0.026884
    13  H   -0.006023   0.312221  -0.035303   0.008413   0.009471   0.035430
    14  H    0.035991   0.016156   0.324214  -0.043064   0.020091  -0.005577
    15  H    0.000050   0.002503   0.389915  -0.009512  -0.078554  -0.012079
    16  H   -0.005171   0.017624  -0.052252   0.399163  -0.028724  -0.035504
    17  H   -0.079082   0.021175  -0.093805   0.036611   0.436100  -0.018528
    18  H   -0.043908   0.004097  -0.029090   0.039448   0.345832   0.035567
    19  H   -0.066441  -0.102946   0.000081   0.032881  -0.021026   0.458830
    20  H   -0.033500  -0.052447  -0.014236   0.040688   0.037444   0.353313
    21  H   -0.120154   0.004380  -0.001593   0.001716   0.000354   0.001398
    22  H   -0.104439   0.000931  -0.011215   0.000970   0.032008  -0.005080
    23  H   -0.108906  -0.007913  -0.002263   0.001610   0.002731   0.028979
    24  H    0.017825  -0.000445  -0.021217   0.086115   0.002219  -0.061369
    25  H    0.003700  -0.001851  -0.007100  -0.051768   0.007599  -0.013768
    26  H    0.000936  -0.008631  -0.000451   0.008536  -0.000932  -0.001646
    27  H   -0.000466   0.021460  -0.004891  -0.012475  -0.005286  -0.003789
    28  H   -0.000170   0.001768  -0.004352   0.042085   0.000711   0.000845
    29  H    0.000398   0.002257  -0.001534   0.009631   0.001768  -0.008517
    30  H   -0.001814  -0.014281   0.011863  -0.021715   0.002207   0.010079
    31  H   -0.000069  -0.006950   0.005173   0.040820   0.001438   0.000725
              7          8          9         10         11         12
     1  C   -0.313980  -0.030222  -0.052189   0.005502   0.019530   0.293363
     2  C   -0.114722   0.346126   0.279955   0.000948  -0.061785  -0.005440
     3  C   -0.115803   0.073733   0.520230  -0.099005  -0.077709  -0.035575
     4  C    0.014721  -0.321691  -1.297068   0.259911   0.161726   0.025538
     5  C    0.122795   0.010804  -0.064038  -0.072731   0.042562  -0.017698
     6  C    0.090347  -0.061297   0.061936  -0.047732  -0.052140  -0.026884
     7  C    5.653528  -0.000782  -0.022273  -0.002031   0.002834   0.037346
     8  O   -0.000782   8.327414   0.085778  -0.030179  -0.031353  -0.000318
     9  C   -0.022273   0.085778   7.164809  -0.396534  -0.138227  -0.003128
    10  C   -0.002031  -0.030179  -0.396534   5.708421  -0.037607   0.000706
    11  C    0.002834  -0.031353  -0.138227  -0.037607   5.475842   0.001604
    12  H    0.037346  -0.000318  -0.003128   0.000706   0.001604   0.568439
    13  H    0.014075  -0.050879  -0.068372   0.006312   0.017687   0.002502
    14  H    0.002492  -0.000370  -0.021787  -0.009931   0.008225  -0.000029
    15  H    0.003845  -0.000206   0.004908   0.007946  -0.003701   0.002784
    16  H    0.004418   0.000279  -0.065185   0.030801   0.005655   0.000070
    17  H    0.007551  -0.000392  -0.005160   0.001914   0.000177   0.005065
    18  H   -0.019434   0.000079  -0.003796   0.000486  -0.001050  -0.004441
    19  H    0.012509   0.000493  -0.008158   0.002654   0.001753   0.004660
    20  H   -0.000700  -0.009684  -0.000220  -0.000636   0.001059  -0.004309
    21  H    0.464105  -0.000103  -0.000081   0.000046   0.000020   0.004753
    22  H    0.446340  -0.000014  -0.000252  -0.000032   0.000026  -0.003719
    23  H    0.445309   0.000032  -0.000363   0.000014  -0.000009  -0.003756
    24  H    0.001347   0.214147  -0.018937   0.001411   0.007282   0.000002
    25  H    0.000065   0.000173   0.309132  -0.015846   0.033947   0.000001
    26  H    0.000032  -0.006830  -0.117551   0.475386   0.004642   0.000000
    27  H   -0.000143   0.000194  -0.098907   0.458082   0.003747   0.000000
    28  H    0.000015   0.000865  -0.132021   0.442355   0.001832   0.000000
    29  H   -0.000084   0.002656  -0.134105   0.000574   0.477511   0.000002
    30  H   -0.000194   0.000083  -0.013451  -0.006984   0.392354   0.000004
    31  H    0.000040   0.000266  -0.112730  -0.004507   0.433945   0.000000
             13         14         15         16         17         18
     1  C   -0.006023   0.035991   0.000050  -0.005171  -0.079082  -0.043908
     2  C    0.312221   0.016156   0.002503   0.017624   0.021175   0.004097
     3  C   -0.035303   0.324214   0.389915  -0.052252  -0.093805  -0.029090
     4  C    0.008413  -0.043064  -0.009512   0.399163   0.036611   0.039448
     5  C    0.009471   0.020091  -0.078554  -0.028724   0.436100   0.345832
     6  C    0.035430  -0.005577  -0.012079  -0.035504  -0.018528   0.035567
     7  C    0.014075   0.002492   0.003845   0.004418   0.007551  -0.019434
     8  O   -0.050879  -0.000370  -0.000206   0.000279  -0.000392   0.000079
     9  C   -0.068372  -0.021787   0.004908  -0.065185  -0.005160  -0.003796
    10  C    0.006312  -0.009931   0.007946   0.030801   0.001914   0.000486
    11  C    0.017687   0.008225  -0.003701   0.005655   0.000177  -0.001050
    12  H    0.002502  -0.000029   0.002784   0.000070   0.005065  -0.004441
    13  H    0.608845  -0.000050   0.002805   0.005127   0.000052  -0.000023
    14  H   -0.000050   0.550414  -0.029581  -0.004461  -0.004444  -0.002496
    15  H    0.002805  -0.029581   0.550171   0.004836   0.004633  -0.004187
    16  H    0.005127  -0.004461   0.004836   0.558062   0.002578   0.000002
    17  H    0.000052  -0.004444   0.004633   0.002578   0.545880  -0.029481
    18  H   -0.000023  -0.002496  -0.004187   0.000002  -0.029481   0.552569
    19  H    0.004627  -0.000039   0.000082   0.002840   0.002794  -0.000014
    20  H   -0.006840   0.000010  -0.000030  -0.000067  -0.000053  -0.000138
    21  H   -0.000003   0.000000   0.000001  -0.000003   0.003286  -0.000127
    22  H   -0.000001   0.000002   0.000002   0.000001  -0.000012   0.000010
    23  H    0.000006  -0.000003   0.000003   0.000001  -0.000226   0.002695
    24  H   -0.006394   0.000005  -0.000003  -0.000225   0.000001  -0.000001
    25  H    0.000095   0.004163  -0.000438  -0.000770   0.000002  -0.000015
    26  H    0.000079  -0.000001  -0.000005  -0.000190   0.000000   0.000000
    27  H   -0.000013   0.000036   0.000000   0.003218   0.000001   0.000000
    28  H    0.000009  -0.000010   0.000003   0.000223   0.000000   0.000000
    29  H   -0.001308  -0.000001   0.000079  -0.000002   0.000000   0.000000
    30  H   -0.000662   0.000106   0.000975  -0.000037  -0.000001   0.000005
    31  H    0.000133  -0.000007  -0.000054  -0.000079   0.000000   0.000000
             19         20         21         22         23         24
     1  C   -0.066441  -0.033500  -0.120154  -0.104439  -0.108906   0.017825
     2  C   -0.102946  -0.052447   0.004380   0.000931  -0.007913  -0.000445
     3  C    0.000081  -0.014236  -0.001593  -0.011215  -0.002263  -0.021217
     4  C    0.032881   0.040688   0.001716   0.000970   0.001610   0.086115
     5  C   -0.021026   0.037444   0.000354   0.032008   0.002731   0.002219
     6  C    0.458830   0.353313   0.001398  -0.005080   0.028979  -0.061369
     7  C    0.012509  -0.000700   0.464105   0.446340   0.445309   0.001347
     8  O    0.000493  -0.009684  -0.000103  -0.000014   0.000032   0.214147
     9  C   -0.008158  -0.000220  -0.000081  -0.000252  -0.000363  -0.018937
    10  C    0.002654  -0.000636   0.000046  -0.000032   0.000014   0.001411
    11  C    0.001753   0.001059   0.000020   0.000026  -0.000009   0.007282
    12  H    0.004660  -0.004309   0.004753  -0.003719  -0.003756   0.000002
    13  H    0.004627  -0.006840  -0.000003  -0.000001   0.000006  -0.006394
    14  H   -0.000039   0.000010   0.000000   0.000002  -0.000003   0.000005
    15  H    0.000082  -0.000030   0.000001   0.000002   0.000003  -0.000003
    16  H    0.002840  -0.000067  -0.000003   0.000001   0.000001  -0.000225
    17  H    0.002794  -0.000053   0.003286  -0.000012  -0.000226   0.000001
    18  H   -0.000014  -0.000138  -0.000127   0.000010   0.002695  -0.000001
    19  H    0.524973  -0.031424   0.002876  -0.000183  -0.000017  -0.000965
    20  H   -0.031424   0.564571  -0.000183   0.002665   0.000005   0.005690
    21  H    0.002876  -0.000183   0.530967  -0.028011  -0.027819   0.000001
    22  H   -0.000183   0.002665  -0.028011   0.532753  -0.025597   0.000001
    23  H   -0.000017   0.000005  -0.027819  -0.025597   0.531471   0.000000
    24  H   -0.000965   0.005690   0.000001   0.000001   0.000000   0.408383
    25  H    0.000001   0.000002   0.000000   0.000000   0.000000   0.000007
    26  H    0.000001   0.000002   0.000000   0.000000   0.000000   0.000355
    27  H    0.000000   0.000000   0.000000   0.000000   0.000000  -0.000006
    28  H    0.000000   0.000000   0.000000   0.000000   0.000000  -0.000006
    29  H   -0.000002   0.000005   0.000000   0.000000   0.000000  -0.000055
    30  H   -0.000001   0.000001   0.000000   0.000000   0.000000  -0.000022
    31  H    0.000000   0.000000   0.000000   0.000000   0.000000  -0.000002
             25         26         27         28         29         30
     1  C    0.003700   0.000936  -0.000466  -0.000170   0.000398  -0.001814
     2  C   -0.001851  -0.008631   0.021460   0.001768   0.002257  -0.014281
     3  C   -0.007100  -0.000451  -0.004891  -0.004352  -0.001534   0.011863
     4  C   -0.051768   0.008536  -0.012475   0.042085   0.009631  -0.021715
     5  C    0.007599  -0.000932  -0.005286   0.000711   0.001768   0.002207
     6  C   -0.013768  -0.001646  -0.003789   0.000845  -0.008517   0.010079
     7  C    0.000065   0.000032  -0.000143   0.000015  -0.000084  -0.000194
     8  O    0.000173  -0.006830   0.000194   0.000865   0.002656   0.000083
     9  C    0.309132  -0.117551  -0.098907  -0.132021  -0.134105  -0.013451
    10  C   -0.015846   0.475386   0.458082   0.442355   0.000574  -0.006984
    11  C    0.033947   0.004642   0.003747   0.001832   0.477511   0.392354
    12  H    0.000001   0.000000   0.000000   0.000000   0.000002   0.000004
    13  H    0.000095   0.000079  -0.000013   0.000009  -0.001308  -0.000662
    14  H    0.004163  -0.000001   0.000036  -0.000010  -0.000001   0.000106
    15  H   -0.000438  -0.000005   0.000000   0.000003   0.000079   0.000975
    16  H   -0.000770  -0.000190   0.003218   0.000223  -0.000002  -0.000037
    17  H    0.000002   0.000000   0.000001   0.000000   0.000000  -0.000001
    18  H   -0.000015   0.000000   0.000000   0.000000   0.000000   0.000005
    19  H    0.000001   0.000001   0.000000   0.000000  -0.000002  -0.000001
    20  H    0.000002   0.000002   0.000000   0.000000   0.000005   0.000001
    21  H    0.000000   0.000000   0.000000   0.000000   0.000000   0.000000
    22  H    0.000000   0.000000   0.000000   0.000000   0.000000   0.000000
    23  H    0.000000   0.000000   0.000000   0.000000   0.000000   0.000000
    24  H    0.000007   0.000355  -0.000006  -0.000006  -0.000055  -0.000022
    25  H    0.597122   0.004956  -0.003846  -0.003815   0.005125  -0.003434
    26  H    0.004956   0.499507  -0.026037  -0.027606   0.003402  -0.000020
    27  H   -0.003846  -0.026037   0.541850  -0.026835   0.000030  -0.000141
    28  H   -0.003815  -0.027606  -0.026835   0.549562  -0.000108   0.000049
    29  H    0.005125   0.003402   0.000030  -0.000108   0.520951  -0.028891
    30  H   -0.003434  -0.000020  -0.000141   0.000049  -0.028891   0.542205
    31  H   -0.003869  -0.000065   0.000052   0.002667  -0.026185  -0.026175
             31
     1  C   -0.000069
     2  C   -0.006950
     3  C    0.005173
     4  C    0.040820
     5  C    0.001438
     6  C    0.000725
     7  C    0.000040
     8  O    0.000266
     9  C   -0.112730
    10  C   -0.004507
    11  C    0.433945
    12  H    0.000000
    13  H    0.000133
    14  H   -0.000007
    15  H   -0.000054
    16  H   -0.000079
    17  H    0.000000
    18  H    0.000000
    19  H    0.000000
    20  H    0.000000
    21  H    0.000000
    22  H    0.000000
    23  H    0.000000
    24  H   -0.000002
    25  H   -0.003869
    26  H   -0.000065
    27  H    0.000052
    28  H    0.002667
    29  H   -0.026185
    30  H   -0.026175
    31  H    0.533485
 Mulliken atomic charges:
              1
     1  C    0.282286
     2  C    0.028322
     3  C   -0.346413
     4  C   -0.153498
     5  C   -0.416665
     6  C   -0.546068
     7  C   -0.733567
     8  O   -0.518803
     9  C    0.347785
    10  C   -0.679711
    11  C   -0.690380
    12  H    0.158458
    13  H    0.147982
    14  H    0.159946
    15  H    0.162810
    16  H    0.157771
    17  H    0.163363
    18  H    0.157412
    19  H    0.179161
    20  H    0.149013
    21  H    0.164175
    22  H    0.162848
    23  H    0.164017
    24  H    0.364856
    25  H    0.140433
    26  H    0.192130
    27  H    0.154162
    28  H    0.151934
    29  H    0.176402
    30  H    0.157893
    31  H    0.161946
 Sum of Mulliken atomic charges =   0.00000
 Mulliken charges with hydrogens summed into heavy atoms:
              1
     1  C    0.440744
     2  C    0.176305
     3  C   -0.023657
     4  C    0.004274
     5  C   -0.095890
     6  C   -0.217894
     7  C   -0.242527
     8  O   -0.153946
     9  C    0.488218
    10  C   -0.181485
    11  C   -0.194140
 Sum of Mulliken charges with hydrogens summed into heavy atoms =   0.00000
 Electronic spatial extent (au):  <R**2>=           2210.6788
 Charge=              0.0000 electrons
 Dipole moment (field-independent basis, Debye):
    X=              1.6824    Y=             -0.0910    Z=              1.0553  Tot=              1.9881
 Quadrupole moment (field-independent basis, Debye-Ang):
   XX=            -74.8690   YY=            -69.0974   ZZ=            -72.0460
   XY=              2.6161   XZ=             -0.2928   YZ=              3.0693
 Traceless Quadrupole moment (field-independent basis, Debye-Ang):
   XX=             -2.8648   YY=              2.9067   ZZ=             -0.0419
   XY=              2.6161   XZ=             -0.2928   YZ=              3.0693
 Octapole moment (field-independent basis, Debye-Ang**2):
  XXX=              0.3562  YYY=             23.9064  ZZZ=             -1.3982  XYY=              3.9748
  XXY=             -3.1747  XXZ=              2.8589  XZZ=              2.4780  YZZ=              2.6510
  YYZ=              8.4748  XYZ=             -2.0215
 Hexadecapole moment (field-independent basis, Debye-Ang**3):
 XXXX=          -2174.5225 YYYY=           -543.1443 ZZZZ=           -319.3364 XXXY=              1.7112
 XXXZ=             -0.5768 YYYX=             -6.2224 YYYZ=             24.6175 ZZZX=              1.0558
 ZZZY=              2.1963 XXYY=           -462.2986 XXZZ=           -419.6684 YYZZ=           -154.8106
 XXYZ=              0.9185 YYXZ=              0.6709 ZZXY=             -0.1881
 N-N= 6.892870986670D+02 E-N=-2.464042803839D+03  KE= 4.637033937695D+02
 1\1\GINC-COMPUTE-10-2\SP\RmPW1PW91\6-31+G(d,p)\C10H20O1\ASAROTTI.IQUIR
 \19-Sep-2024\0\\# mPW1PW91/6-31+G** nmr scrf=(pcm,solvent=benzene)\\co
 mment\\0,1\C,0,2.295753,-0.082486,0.324724\C,0,-0.073364,0.885205,0.30
 7521\C,0,0.261993,-1.576925,-0.029635\C,0,-0.628558,-0.367008,-0.39066
 1\C,0,1.745097,-1.348135,-0.352414\C,0,1.404522,1.117157,-0.036291\C,0
 ,3.764473,0.171085,-0.03329\O,0,-0.864698,2.013207,-0.080807\C,0,-2.13
 3311,-0.669159,-0.113892\C,0,-3.077605,0.116688,-1.038899\C,0,-2.54044
 4,-0.483362,1.357129\H,0,2.232931,-0.232599,1.414787\H,0,-0.155095,0.7
 38608,1.398213\H,0,-0.102518,-2.461382,-0.567288\H,0,0.155748,-1.80400
 6,1.041659\H,0,-0.524247,-0.193648,-1.473142\H,0,1.869368,-1.250808,-1
 .441866\H,0,2.335656,-2.223118,-0.049257\H,0,1.480166,1.32709,-1.11313
 4\H,0,1.76013,2.018873,0.486279\H,0,3.883701,0.329705,-1.112789\H,0,4.
 153515,1.059622,0.47858\H,0,4.394287,-0.681033,0.249253\H,0,-0.487304,
 2.79485,0.352874\H,0,-2.268657,-1.735135,-0.354041\H,0,-2.994496,1.192
 018,-0.862541\H,0,-2.842186,-0.071292,-2.093803\H,0,-4.119428,-0.18523
 6,-0.872224\H,0,-2.515471,0.57494,1.639564\H,0,-1.886783,-1.036383,2.0
 42612\H,0,-3.563071,-0.845085,1.516968\\Version=AM64L-G09RevC.01\State
 =1-A\HF=-468.2841593\RMSD=9.696e-09\Dipole=0.6618932,-0.0358053,0.4151
 996\Quadrupole=-2.1299225,2.1610696,-0.0311471,1.9450067,-0.2176649,2.
 2819517\PG=C01 [X(C10H20O1)]\\@


 I WISH TO HAVE NO CONNECTION WITH ANY SHIP THAT DOES NOT SAIL FAST,
 FOR I INTEND TO GO IN HARM'S WAY.
     -- JOHN PAUL JONES, USN 1747-1792
 Job cpu time:  0 days  0 hours  9 minutes 15.2 seconds.
 File lengths (MBytes):  RWF=    121 Int=      0 D2E=      0 Chk=      7 Scr=      1
 Normal termination of Gaussian 09 at Thu Sep 19 07:52:44 2024.
