 Entering Gaussian System, Link 0=g09
 Input=/home/asarotti.iquir/SCF2/02_Mentol16_OptB_NMR_benzene.gjc
 Output=/home/asarotti.iquir/SCF2/02_Mentol16_OptB_NMR_benzene.log
 Initial command:
 /opt/ohpc/pub/apps/software/Gaussian/09/AMD64.SSE4a-enabled/g09/l1.exe /local/asarotti.iquir/Gau-2483642.inp -scrdir=/local/asarotti.iquir/
 Entering Link 1 = /opt/ohpc/pub/apps/software/Gaussian/09/AMD64.SSE4a-enabled/g09/l1.exe PID=   2483643.
  
 Copyright (c) 1988,1990,1992,1993,1995,1998,2003,2009,2011,
            Gaussian, Inc.  All Rights Reserved.
  
 This is part of the Gaussian(R) 09 program.  It is based on
 the Gaussian(R) 03 system (copyright 2003, Gaussian, Inc.),
 the Gaussian(R) 98 system (copyright 1998, Gaussian, Inc.),
 the Gaussian(R) 94 system (copyright 1995, Gaussian, Inc.),
 the Gaussian 92(TM) system (copyright 1992, Gaussian, Inc.),
 the Gaussian 90(TM) system (copyright 1990, Gaussian, Inc.),
 the Gaussian 88(TM) system (copyright 1988, Gaussian, Inc.),
 the Gaussian 86(TM) system (copyright 1986, Carnegie Mellon
 University), and the Gaussian 82(TM) system (copyright 1983,
 Carnegie Mellon University). Gaussian is a federally registered
 trademark of Gaussian, Inc.
  
 This software contains proprietary and confidential information,
 including trade secrets, belonging to Gaussian, Inc.
  
 This software is provided under written license and may be
 used, copied, transmitted, or stored only in accord with that
 written license.
  
 The following legend is applicable only to US Government
 contracts under FAR:
  
                    RESTRICTED RIGHTS LEGEND
  
 Use, reproduction and disclosure by the US Government is
 subject to restrictions as set forth in subparagraphs (a)
 and (c) of the Commercial Computer Software - Restricted
 Rights clause in FAR 52.227-19.
  
 Gaussian, Inc.
 340 Quinnipiac St., Bldg. 40, Wallingford CT 06492
  
  
 ---------------------------------------------------------------
 Warning -- This program may not be used in any manner that
 competes with the business of Gaussian, Inc. or will provide
 assistance to any competitor of Gaussian, Inc.  The licensee
 of this program is prohibited from giving any competitor of
 Gaussian, Inc. access to this program.  By using this program,
 the user acknowledges that Gaussian, Inc. is engaged in the
 business of creating and licensing software in the field of
 computational chemistry and represents and warrants to the
 licensee that it is not a competitor of Gaussian, Inc. and that
 it will not use this program in any manner prohibited above.
 ---------------------------------------------------------------
  

 Cite this work as:
 Gaussian 09, Revision C.01,
 M. J. Frisch, G. W. Trucks, H. B. Schlegel, G. E. Scuseria, 
 M. A. Robb, J. R. Cheeseman, G. Scalmani, V. Barone, B. Mennucci, 
 G. A. Petersson, H. Nakatsuji, M. Caricato, X. Li, H. P. Hratchian, 
 A. F. Izmaylov, J. Bloino, G. Zheng, J. L. Sonnenberg, M. Hada, 
 M. Ehara, K. Toyota, R. Fukuda, J. Hasegawa, M. Ishida, T. Nakajima, 
 Y. Honda, O. Kitao, H. Nakai, T. Vreven, J. A. Montgomery, Jr., 
 J. E. Peralta, F. Ogliaro, M. Bearpark, J. J. Heyd, E. Brothers, 
 K. N. Kudin, V. N. Staroverov, T. Keith, R. Kobayashi, J. Normand, 
 K. Raghavachari, A. Rendell, J. C. Burant, S. S. Iyengar, J. Tomasi, 
 M. Cossi, N. Rega, J. M. Millam, M. Klene, J. E. Knox, J. B. Cross, 
 V. Bakken, C. Adamo, J. Jaramillo, R. Gomperts, R. E. Stratmann, 
 O. Yazyev, A. J. Austin, R. Cammi, C. Pomelli, J. W. Ochterski, 
 R. L. Martin, K. Morokuma, V. G. Zakrzewski, G. A. Voth, 
 P. Salvador, J. J. Dannenberg, S. Dapprich, A. D. Daniels, 
 O. Farkas, J. B. Foresman, J. V. Ortiz, J. Cioslowski, 
 and D. J. Fox, Gaussian, Inc., Wallingford CT, 2010.
 
 ******************************************
 Gaussian 09:  AM64L-G09RevC.01 23-Sep-2011
                19-Sep-2024 
 ******************************************
 %nprocshared=4
 Will use up to    4 processors via shared memory.
 %mem=100mw
 --------------------------------------------------
 # mPW1PW91/6-31+G** nmr scrf=(pcm,solvent=benzene)
 --------------------------------------------------
 1/38=1/1;
 2/12=2,17=6,18=5,40=1/2;
 3/5=1,6=6,7=111,11=2,16=1,25=1,30=1,70=2201,72=12,74=-7/1,2,8,3;
 4//1;
 5/5=2,38=5,53=12/2;
 8/6=1,10=90,11=11/1;
 10/13=100,45=16/2;
 6/7=2,8=2,9=2,10=2,28=1/1;
 99/9=1/99;
 -------
 comment
 -------
 Charge =  0 Multiplicity = 1
 Symbolic Z-Matrix:
 6                    -2.04761  -0.0548   -0.00477 
 6                     0.17774   1.14891  -0.47741 
 6                    -0.12391  -0.223     1.65827 
 6                     0.90036   0.37021   0.65496 
 6                    -1.33112  -0.93859   1.03027 
 6                    -1.04149   0.41765  -1.06926 
 6                    -3.24748  -0.76735  -0.63781 
 8                    -0.20055   2.45795  -0.02095 
 6                     2.0146   -0.62348   0.20024 
 6                     3.24459   0.13418  -0.33297 
 6                     1.6164   -1.72159  -0.80059 
 1                    -2.43281   0.83473   0.52186 
 1                     0.88698   1.35797  -1.28496 
 1                    -0.51093   0.5999    2.27911 
 1                     0.39454  -0.89363   2.35587 
 1                     1.44657   1.14731   1.20601 
 1                    -2.03318  -1.23062   1.8232 
 1                    -1.01749  -1.87105   0.5426 
 1                    -1.52963   1.09778  -1.77842 
 1                    -0.70518  -0.45476  -1.64431 
 1                    -3.76638  -0.11654  -1.35153 
 1                    -2.92726  -1.66679  -1.1795 
 1                    -3.97298  -1.07806   0.12376 
 1                    -0.81851   2.34486   0.71789 
 1                     2.33422  -1.13423   1.12157 
 1                     3.02528   0.6593   -1.27063 
 1                     3.60209   0.87842   0.38809 
 1                     4.06892  -0.55996  -0.53537 
 1                     1.33954  -1.30263  -1.7753 
 1                     0.78205  -2.3346   -0.44727 
 1                     2.46613  -2.39386  -0.97072 
 
                          Input orientation:                          
 ---------------------------------------------------------------------
 Center     Atomic      Atomic             Coordinates (Angstroms)
 Number     Number       Type             X           Y           Z
 ---------------------------------------------------------------------
      1          6           0       -2.047613   -0.054798   -0.004768
      2          6           0        0.177736    1.148911   -0.477413
      3          6           0       -0.123913   -0.222998    1.658274
      4          6           0        0.900364    0.370206    0.654964
      5          6           0       -1.331120   -0.938586    1.030266
      6          6           0       -1.041491    0.417649   -1.069262
      7          6           0       -3.247482   -0.767354   -0.637808
      8          8           0       -0.200549    2.457953   -0.020949
      9          6           0        2.014599   -0.623482    0.200238
     10          6           0        3.244594    0.134182   -0.332967
     11          6           0        1.616396   -1.721593   -0.800585
     12          1           0       -2.432810    0.834725    0.521857
     13          1           0        0.886976    1.357969   -1.284962
     14          1           0       -0.510934    0.599899    2.279112
     15          1           0        0.394536   -0.893631    2.355870
     16          1           0        1.446569    1.147310    1.206011
     17          1           0       -2.033180   -1.230617    1.823198
     18          1           0       -1.017492   -1.871049    0.542602
     19          1           0       -1.529627    1.097780   -1.778418
     20          1           0       -0.705175   -0.454760   -1.644310
     21          1           0       -3.766376   -0.116541   -1.351529
     22          1           0       -2.927263   -1.666787   -1.179501
     23          1           0       -3.972976   -1.078058    0.123755
     24          1           0       -0.818511    2.344861    0.717894
     25          1           0        2.334215   -1.134234    1.121568
     26          1           0        3.025281    0.659304   -1.270627
     27          1           0        3.602091    0.878422    0.388091
     28          1           0        4.068923   -0.559955   -0.535367
     29          1           0        1.339540   -1.302625   -1.775297
     30          1           0        0.782051   -2.334596   -0.447274
     31          1           0        2.466126   -2.393863   -0.970724
 ---------------------------------------------------------------------
                    Distance matrix (angstroms):
                    1          2          3          4          5
     1  C    0.000000
     2  C    2.573808   0.000000
     3  C    2.548455   2.556225   0.000000
     4  C    3.050646   1.552691   1.551665   0.000000
     5  C    1.538096   2.984524   1.537468   2.614060   0.000000
     6  C    1.539037   1.539982   2.948191   2.597308   2.516203
     7  C    1.532371   3.928093   3.914716   4.491094   2.546416
     8  O    3.118625   1.437028   3.164358   2.455108   3.730914
     9  C    4.106945   2.640957   2.619063   1.560677   3.461513
    10  C    5.305741   3.233598   3.929308   2.554825   4.893505
    11  C    4.103229   3.227069   3.364588   2.647064   3.557101
    12  H    1.103160   2.812864   2.782306   3.368018   2.148682
    13  H    3.499517   1.094926   3.490557   2.176963   3.943906
    14  H    2.829509   2.893806   1.101083   2.163880   2.144588
    15  H    3.498620   3.499496   1.097806   2.178584   2.176496
    16  H    3.888490   2.108046   2.132768   1.098127   3.478132
    17  H    2.173527   3.980341   2.165132   3.540210   1.098595
    18  H    2.158595   3.404285   2.181577   2.951952   1.098028
    19  H    2.177747   2.147165   3.940982   3.515049   3.474895
    20  H    2.156434   2.170931   3.361345   2.923181   2.789131
    21  H    2.184428   4.233375   4.726286   5.103077   3.504166
    22  H    2.179975   4.249953   4.242200   4.708007   2.821528
    23  H    2.184171   4.748600   4.230976   5.111663   2.796537
    24  H    2.791289   1.962540   2.821468   2.618731   3.337869
    25  H    4.651261   3.524187   2.675967   2.130021   3.671688
    26  H    5.276987   2.996234   4.390255   2.882143   5.179343
    27  H    5.739721   3.542382   4.087737   2.762034   5.296270
    28  H    6.160254   4.250284   4.743994   3.510250   5.635160
    29  H    4.020529   3.007378   3.885447   2.982852   3.890518
    30  H    3.660640   3.535665   3.116560   2.923163   2.932143
    31  H    5.174759   4.246332   4.281657   3.568550   4.532204
                    6          7          8          9         10
     6  C    0.000000
     7  C    2.541020   0.000000
     8  O    2.443150   4.479612   0.000000
     9  C    3.469189   5.330339   3.801453   0.000000
    10  C    4.358097   6.561459   4.167287   1.539886   0.000000
    11  C    3.422412   4.959272   4.623605   1.538200   2.512687
    12  H    2.154386   2.138965   2.812916   4.691402   5.783978
    13  H    2.156319   4.693565   1.997600   2.720937   2.821757
    14  H    3.395043   4.226878   2.973043   3.492377   4.598243
    15  H    3.938675   4.716179   4.151688   2.710043   4.050812
    16  H    3.449596   5.394416   2.436435   2.114224   2.574447
    17  H    3.473694   2.783108   4.512756   4.403082   5.862305
    18  H    2.799432   2.753973   4.441311   3.296546   4.790924
    19  H    1.097159   2.780421   2.589443   4.409009   5.080456
    20  H    1.097673   2.752106   3.372513   3.290592   4.203231
    21  H    2.791063   1.096452   4.594952   6.007049   7.089008
    22  H    2.813034   1.097703   5.078454   5.235854   6.484746
    23  H    3.500576   1.096748   5.172574   6.005293   7.332901
    24  H    2.637763   4.174172   0.969823   4.135884   4.743441
    25  H    4.313174   5.863902   4.542486   1.100850   2.133856
    26  H    4.078919   6.464006   3.899078   2.197831   1.096840
    27  H    4.888665   7.118827   4.137910   2.193430   1.096185
    28  H    5.230400   7.320061   5.253645   2.182979   1.096499
    29  H    3.021115   4.756171   4.426235   2.195377   2.788182
    30  H    3.359617   4.327781   4.910782   2.205982   3.488846
    31  H    4.496408   5.949931   5.617237   2.170087   2.720985
                   11         12         13         14         15
    11  C    0.000000
    12  H    4.967865   0.000000
    13  H    3.201621   3.815673   0.000000
    14  H    4.404474   2.614708   3.902749   0.000000
    15  H    3.484490   3.787440   4.309044   1.748256   0.000000
    16  H    3.505121   3.951627   2.561731   2.298483   2.567954
    17  H    4.521582   2.473627   4.988862   2.424021   2.508207
    18  H    2.960381   3.053648   4.170557   3.062295   2.497421
    19  H    4.336183   2.485197   2.480155   4.212976   4.975988
    20  H    2.776046   3.056104   2.439275   4.067343   4.171740
    21  H    5.643932   2.488550   4.881833   4.928767   5.626888
    22  H    4.559761   3.065398   4.869157   4.789417   4.912328
    23  H    5.701721   2.487837   5.615857   4.409857   4.908310
    24  H    4.977007   2.219212   2.809639   2.361546   3.826523
    25  H    2.134227   5.192396   3.754592   3.527322   2.311654
    26  H    2.806166   5.747567   2.249597   5.010887   4.741720
    27  H    3.480806   6.036541   3.225046   4.535472   4.159415
    28  H    2.726652   6.733156   3.790133   5.499240   4.687399
    29  H    1.096470   4.906710   2.742992   4.845832   4.257564
    30  H    1.093953   4.617266   3.787845   4.209068   3.175557
    31  H    1.096784   6.054020   4.082732   5.327939   4.196237
                   16         17         18         19         20
    16  H    0.000000
    17  H    4.259590   0.000000
    18  H    3.952493   1.755478   0.000000
    19  H    4.215093   4.318175   3.803073   0.000000
    20  H    3.914200   3.793305   2.624119   1.762977   0.000000
    21  H    5.942485   3.784709   3.771259   2.580670   3.093714
    22  H    5.721907   3.163199   2.579649   3.155142   2.573467
    23  H    5.957769   2.583445   3.088552   3.784506   3.767370
    24  H    2.608251   3.934611   4.224242   2.879665   3.664796
    25  H    2.449590   4.424445   3.480235   5.321755   4.165292
    26  H    2.977284   6.223470   5.102401   4.604053   3.911148
    27  H    2.321114   6.185779   5.378105   5.574622   4.945763
    28  H    3.581046   6.576342   5.362145   5.969675   4.902329
    29  H    3.860289   4.932504   3.354305   3.740865   2.217407
    30  H    3.911343   3.781447   2.105489   4.347068   2.679276
    31  H    4.279904   5.422444   3.833939   5.367493   3.777696
                   21         22         23         24         25
    21  H    0.000000
    22  H    1.771148   0.000000
    23  H    1.773037   1.771608   0.000000
    24  H    4.362444   4.913274   4.692550   0.000000
    25  H    6.661015   5.767294   6.385879   4.712402   0.000000
    26  H    6.836306   6.391540   7.344272   4.644357   3.068705
    27  H    7.636134   7.181079   7.828111   4.669147   2.489233
    28  H    7.890161   7.112426   8.085482   5.821995   2.466666
    29  H    5.258969   4.323563   5.646207   4.917046   3.067501
    30  H    5.140587   3.839419   4.951287   5.081017   2.512239
    31  H    6.646449   5.446180   6.662677   6.007976   2.445762
                   26         27         28         29         30
    26  H    0.000000
    27  H    1.769765   0.000000
    28  H    1.765330   1.771902   0.000000
    29  H    2.635447   3.815279   3.088449   0.000000
    30  H    3.830591   4.355909   3.736394   1.771836   0.000000
    31  H    3.118401   3.720839   2.474209   1.762763   1.764546
                   31
    31  H    0.000000
 Stoichiometry    C10H20O
 Framework group  C1[X(C10H20O)]
 Deg. of freedom    87
 Full point group                 C1      NOp   1
 Largest Abelian subgroup         C1      NOp   1
 Largest concise Abelian subgroup C1      NOp   1
                         Standard orientation:                         
 ---------------------------------------------------------------------
 Center     Atomic      Atomic             Coordinates (Angstroms)
 Number     Number       Type             X           Y           Z
 ---------------------------------------------------------------------
      1          6           0       -2.047613   -0.054798   -0.004768
      2          6           0        0.177736    1.148911   -0.477413
      3          6           0       -0.123913   -0.222998    1.658274
      4          6           0        0.900364    0.370206    0.654964
      5          6           0       -1.331120   -0.938586    1.030266
      6          6           0       -1.041491    0.417649   -1.069262
      7          6           0       -3.247482   -0.767354   -0.637808
      8          8           0       -0.200549    2.457953   -0.020949
      9          6           0        2.014599   -0.623482    0.200238
     10          6           0        3.244594    0.134182   -0.332967
     11          6           0        1.616396   -1.721593   -0.800585
     12          1           0       -2.432810    0.834725    0.521857
     13          1           0        0.886976    1.357969   -1.284962
     14          1           0       -0.510934    0.599899    2.279112
     15          1           0        0.394536   -0.893631    2.355870
     16          1           0        1.446569    1.147310    1.206011
     17          1           0       -2.033180   -1.230617    1.823198
     18          1           0       -1.017492   -1.871049    0.542602
     19          1           0       -1.529627    1.097780   -1.778418
     20          1           0       -0.705175   -0.454760   -1.644310
     21          1           0       -3.766376   -0.116541   -1.351529
     22          1           0       -2.927263   -1.666787   -1.179501
     23          1           0       -3.972976   -1.078058    0.123755
     24          1           0       -0.818511    2.344861    0.717894
     25          1           0        2.334215   -1.134234    1.121568
     26          1           0        3.025281    0.659304   -1.270627
     27          1           0        3.602091    0.878422    0.388091
     28          1           0        4.068923   -0.559955   -0.535367
     29          1           0        1.339540   -1.302625   -1.775297
     30          1           0        0.782051   -2.334596   -0.447274
     31          1           0        2.466126   -2.393863   -0.970724
 ---------------------------------------------------------------------
 Rotational constants (GHZ):      1.5384243      0.7712807      0.6738314
 Standard basis: 6-31+G(d,p) (6D, 7F)
 There are   309 symmetry adapted basis functions of A   symmetry.
 Integral buffers will be    131072 words long.
 Raffenetti 2 integral format.
 Two-electron integral symmetry is turned on.
   309 basis functions,   492 primitive gaussians,   309 cartesian basis functions
    44 alpha electrons       44 beta electrons
       nuclear repulsion energy       696.6459105481 Hartrees.
 NAtoms=   31 NActive=   31 NUniq=   31 SFac= 1.00D+00 NAtFMM=   60 NAOKFM=F Big=F
 ------------------------------------------------------------------------------
 Polarizable Continuum Model (PCM)
 =================================
 Model                : PCM.
 Atomic radii         : UFF (Universal Force Field).
 Polarization charges : Total charges.
 Charge compensation  : None.
 Solution method      : Matrix inversion.
 Cavity type          : Scaled VdW (van der Waals Surface) (Alpha=1.100).
 Cavity algorithm     : GePol (No added spheres)
                        Default sphere list used, NSphG=   31.
                        Lebedev-Laikov grids with approx.  5.0 points / Ang**2.
                        Smoothing algorithm: Karplus/York (Gamma=1.0000).
                        Polarization charges: spherical gaussians, with
                                              point-specific exponents (IZeta= 3).
                        Self-potential: point-specific (ISelfS= 7).
                        Self-field    : sphere-specific E.n sum rule (ISelfD= 2).
 Solvent              : Benzene, Eps=   2.270600 Eps(inf)=   2.253301
 ------------------------------------------------------------------------------
 One-electron integrals computed using PRISM.
 NBasis=   309 RedAO= T  NBF=   309
 NBsUse=   309 1.00D-06 NBFU=   309
 Harris functional with IExCor=  908 diagonalized for initial guess.
 ExpMin= 4.38D-02 ExpMax= 5.48D+03 ExpMxC= 8.25D+02 IAcc=2 IRadAn=         4 AccDes= 0.00D+00
 HarFok:  IExCor=  908 AccDes= 0.00D+00 IRadAn=         4 IDoV= 1
 ScaDFX=  1.000000  1.000000  1.000000  1.000000
 FoFCou: FMM=F IPFlag=           0 FMFlag=      100000 FMFlg1=           0
         NFxFlg=           0 DoJE=T BraDBF=F KetDBF=T FulRan=T
         Omega=  0.000000  0.000000  1.000000  0.000000  0.000000 ICntrl=     500 IOpCl=  0
         NMat0=    1 NMatS0=    1 NMatT0=    0 NMatD0=    1 NMtDS0=    0 NMtDT0=    0
         I1Cent=           4 NGrid=           0.
 Petite list used in FoFCou.
 Initial guess orbital symmetries:
       Occupied  (A) (A) (A) (A) (A) (A) (A) (A) (A) (A) (A) (A)
                 (A) (A) (A) (A) (A) (A) (A) (A) (A) (A) (A) (A)
                 (A) (A) (A) (A) (A) (A) (A) (A) (A) (A) (A) (A)
                 (A) (A) (A) (A) (A) (A) (A) (A)
       Virtual   (A) (A) (A) (A) (A) (A) (A) (A) (A) (A) (A) (A)
                 (A) (A) (A) (A) (A) (A) (A) (A) (A) (A) (A) (A)
                 (A) (A) (A) (A) (A) (A) (A) (A) (A) (A) (A) (A)
                 (A) (A) (A) (A) (A) (A) (A) (A) (A) (A) (A) (A)
                 (A) (A) (A) (A) (A) (A) (A) (A) (A) (A) (A) (A)
                 (A) (A) (A) (A) (A) (A) (A) (A) (A) (A) (A) (A)
                 (A) (A) (A) (A) (A) (A) (A) (A) (A) (A) (A) (A)
                 (A) (A) (A) (A) (A) (A) (A) (A) (A) (A) (A) (A)
                 (A) (A) (A) (A) (A) (A) (A) (A) (A) (A) (A) (A)
                 (A) (A) (A) (A) (A) (A) (A) (A) (A) (A) (A) (A)
                 (A) (A) (A) (A) (A) (A) (A) (A) (A) (A) (A) (A)
                 (A) (A) (A) (A) (A) (A) (A) (A) (A) (A) (A) (A)
                 (A) (A) (A) (A) (A) (A) (A) (A) (A) (A) (A) (A)
                 (A) (A) (A) (A) (A) (A) (A) (A) (A) (A) (A) (A)
                 (A) (A) (A) (A) (A) (A) (A) (A) (A) (A) (A) (A)
                 (A) (A) (A) (A) (A) (A) (A) (A) (A) (A) (A) (A)
                 (A) (A) (A) (A) (A) (A) (A) (A) (A) (A) (A) (A)
                 (A) (A) (A) (A) (A) (A) (A) (A) (A) (A) (A) (A)
                 (A) (A) (A) (A) (A) (A) (A) (A) (A) (A) (A) (A)
                 (A) (A) (A) (A) (A) (A) (A) (A) (A) (A) (A) (A)
                 (A) (A) (A) (A) (A) (A) (A) (A) (A) (A) (A) (A)
                 (A) (A) (A) (A) (A) (A) (A) (A) (A) (A) (A) (A)
                 (A)
 The electronic state of the initial guess is 1-A.
 Requested convergence on RMS density matrix=1.00D-08 within 128 cycles.
 Requested convergence on MAX density matrix=1.00D-06.
 Requested convergence on             energy=1.00D-06.
 No special actions if energy rises.
 Error on total polarization charges =  0.00928
 SCF Done:  E(RmPW1PW91) =  -468.276167755     A.U. after   12 cycles
             Convg  =    0.7525D-08             -V/T =  2.0099
 Range of M.O.s used for correlation:     1   309
 NBasis=   309 NAE=    44 NBE=    44 NFC=     0 NFV=     0
 NROrb=    309 NOA=    44 NOB=    44 NVA=   265 NVB=   265

 **** Warning!!: The largest alpha MO coefficient is  0.85321673D+02

 NEqPCM:  Using equilibrium solvation (IEInf=0, Eps=   2.2706, EpsInf=   2.2533)
          Differentiating once with respect to magnetic field using GIAOs.
          Electric field/nuclear overlap derivatives assumed to be zero.
 FoFCou: FMM=F IPFlag=           0 FMFlag=    10101102 FMFlg1=           0
         NFxFlg=    40000000 DoJE=F BraDBF=F KetDBF=T FulRan=T
         Omega=  0.000000  0.000000  1.000000  0.000000  0.000000 ICntrl=    6100 IOpCl=  0
         NMat0=    1 NMatS0=    1 NMatT0=    0 NMatD0=    1 NMtDS0=    0 NMtDT0=    0
         I1Cent=           7 NGrid=        1924.
 Symmetry not used in FoFCou.
          There are     3 degrees of freedom in the 1st order CPHF.  IDoFFX=0.
      3 vectors produced by pass  0 Test12= 3.89D-13 3.33D-08 XBig12= 4.07D+01 1.76D+00.
 AX will form     3 AO Fock derivatives at one time.
      3 vectors produced by pass  1 Test12= 3.89D-13 3.33D-08 XBig12= 8.91D-02 4.42D-02.
      3 vectors produced by pass  2 Test12= 3.89D-13 3.33D-08 XBig12= 2.08D-04 2.73D-03.
      3 vectors produced by pass  3 Test12= 3.89D-13 3.33D-08 XBig12= 6.47D-07 2.09D-04.
      3 vectors produced by pass  4 Test12= 3.89D-13 3.33D-08 XBig12= 2.04D-09 6.62D-06.
      3 vectors produced by pass  5 Test12= 3.89D-13 3.33D-08 XBig12= 4.35D-12 3.51D-07.
 Inverted reduced A of dimension    18 with in-core refinement.
 Calculating GIAO nuclear magnetic shielding tensors.
 SCF GIAO Magnetic shielding tensor (ppm):
      1  C    Isotropic =   167.3342   Anisotropy =    15.8421
   XX=   163.2352   YX=    -2.7928   ZX=     5.9895
   XY=    -0.4110   YY=   168.0504   ZY=    -1.1631
   XZ=    14.2754   YZ=     0.7714   ZZ=   170.7170
   Eigenvalues:   156.0541   168.0529   177.8956
      2  C    Isotropic =   127.3615   Anisotropy =    54.2143
   XX=   116.2061   YX=   -13.4643   ZX=     2.6248
   XY=   -18.3305   YY=   150.5139   ZY=    20.5640
   XZ=     0.6390   YZ=    18.8841   ZZ=   115.3645
   Eigenvalues:   101.1107   117.4695   163.5044
      3  C    Isotropic =   164.8894   Anisotropy =    19.8915
   XX=   177.6046   YX=     0.4104   ZX=     2.3252
   XY=     6.2781   YY=   155.7432   ZY=    -6.1781
   XZ=    -2.4486   YZ=    -4.4212   ZZ=   161.3204
   Eigenvalues:   152.2242   164.2935   178.1504
      4  C    Isotropic =   149.1955   Anisotropy =    24.9008
   XX=   146.2120   YX=    -7.9664   ZX=    -0.4276
   XY=   -14.4067   YY=   157.8370   ZY=    13.1738
   XZ=    11.1074   YZ=     4.3534   ZZ=   143.5374
   Eigenvalues:   131.8638   149.9266   165.7960
      5  C    Isotropic =   162.7746   Anisotropy =    17.7299
   XX=   164.6458   YX=    -0.2165   ZX=     7.9414
   XY=    -7.4454   YY=   158.6129   ZY=    -2.8454
   XZ=     8.1914   YZ=    -4.1126   ZZ=   165.0650
   Eigenvalues:   156.5538   157.1754   174.5945
      6  C    Isotropic =   154.6427   Anisotropy =    19.8820
   XX=   162.3729   YX=    12.6319   ZX=     4.9998
   XY=     2.8245   YY=   156.5327   ZY=     5.4847
   XZ=    -5.2278   YZ=     1.9509   ZZ=   145.0224
   Eigenvalues:   143.5730   152.4577   167.8973
      7  C    Isotropic =   172.4584   Anisotropy =    38.7963
   XX=   186.1706   YX=    11.6379   ZX=    10.8831
   XY=    16.6932   YY=   164.7886   ZY=     3.7429
   XZ=    14.5805   YZ=     2.1292   ZZ=   166.4160
   Eigenvalues:   156.1580   162.8945   198.3226
      8  O    Isotropic =   270.5524   Anisotropy =    45.2112
   XX=   254.0612   YX=   -10.5834   ZX=    32.4221
   XY=   -12.0647   YY=   297.8558   ZY=     7.3204
   XZ=    33.2514   YZ=     6.1295   ZZ=   259.7403
   Eigenvalues:   221.7547   289.2093   300.6932
      9  C    Isotropic =   157.8011   Anisotropy =    22.4251
   XX=   164.8189   YX=    -9.6249   ZX=    -5.2761
   XY=   -11.9581   YY=   155.7457   ZY=    -3.1901
   XZ=    -8.2474   YZ=    -3.7398   ZZ=   152.8386
   Eigenvalues:   143.5729   157.0792   172.7511
     10  C    Isotropic =   171.5744   Anisotropy =    39.0230
   XX=   184.2065   YX=    17.2340   ZX=    -7.4338
   XY=    17.3976   YY=   172.6289   ZY=     5.9911
   XZ=   -14.8535   YZ=     5.2055   ZZ=   157.8879
   Eigenvalues:   147.5321   169.6014   197.5897
     11  C    Isotropic =   173.9563   Anisotropy =    21.7483
   XX=   173.6092   YX=     3.5075   ZX=    -0.5691
   XY=     8.5629   YY=   177.7830   ZY=     9.6197
   XZ=     3.4577   YZ=    13.4221   ZZ=   170.4767
   Eigenvalues:   161.5094   171.9044   188.4551
     12  H    Isotropic =    30.1192   Anisotropy =     6.3656
   XX=    31.7477   YX=    -1.6747   ZX=    -1.2519
   XY=    -1.2990   YY=    31.4846   ZY=     3.0225
   XZ=    -1.3370   YZ=     2.8301   ZZ=    27.1254
   Eigenvalues:    25.6137    30.3811    34.3629
     13  H    Isotropic =    27.7218   Anisotropy =     5.2366
   XX=    29.2330   YX=    -0.4759   ZX=    -2.6261
   XY=    -1.6879   YY=    26.9882   ZY=    -0.2420
   XZ=    -3.1307   YZ=    -1.8000   ZZ=    26.9443
   Eigenvalues:    24.2239    27.7287    31.2129
     14  H    Isotropic =    29.7226   Anisotropy =     8.3665
   XX=    27.8938   YX=     0.3251   ZX=    -2.2306
   XY=     0.0681   YY=    28.3327   ZY=     3.0357
   XZ=    -2.4897   YZ=     3.7792   ZZ=    32.9412
   Eigenvalues:    25.6280    28.2396    35.3002
     15  H    Isotropic =    30.0942   Anisotropy =     8.6303
   XX=    30.1461   YX=    -0.9081   ZX=     2.5725
   XY=    -0.6903   YY=    27.2067   ZY=    -3.2165
   XZ=     2.4960   YZ=    -3.8907   ZZ=    32.9299
   Eigenvalues:    25.4702    28.9647    35.8478
     16  H    Isotropic =    29.9408   Anisotropy =     5.6322
   XX=    31.6431   YX=     1.1941   ZX=     0.0961
   XY=     2.0568   YY=    30.3264   ZY=     2.8769
   XZ=     0.5385   YZ=     3.5667   ZZ=    27.8529
   Eigenvalues:    25.5630    30.5638    33.6956
     17  H    Isotropic =    30.1648   Anisotropy =     9.4000
   XX=    31.3348   YX=     2.7805   ZX=    -2.6268
   XY=     3.1593   YY=    26.8945   ZY=    -3.0239
   XZ=    -2.5870   YZ=    -3.3432   ZZ=    32.2650
   Eigenvalues:    24.9017    29.1612    36.4314
     18  H    Isotropic =    30.2818   Anisotropy =     5.4328
   XX=    30.8051   YX=    -0.2321   ZX=     0.1377
   XY=    -0.9213   YY=    33.6480   ZY=     1.2741
   XZ=    -0.1592   YZ=     0.8331   ZZ=    26.3922
   Eigenvalues:    26.2412    30.7004    33.9037
     19  H    Isotropic =    29.7753   Anisotropy =     7.9390
   XX=    28.9510   YX=    -0.4523   ZX=     2.3677
   XY=     0.6260   YY=    28.8172   ZY=    -4.0343
   XZ=     2.4897   YZ=    -4.0124   ZZ=    31.5578
   Eigenvalues:    25.2658    28.9922    35.0680
     20  H    Isotropic =    30.2822   Anisotropy =     4.7988
   XX=    31.2847   YX=    -0.9674   ZX=    -0.2568
   XY=    -1.3426   YY=    28.9703   ZY=     3.1571
   XZ=    -0.6874   YZ=     2.9450   ZZ=    30.5917
   Eigenvalues:    26.5377    30.8275    33.4815
     21  H    Isotropic =    30.6215   Anisotropy =    10.7882
   XX=    33.5229   YX=    -1.8342   ZX=     5.2400
   XY=    -1.0224   YY=    28.0831   ZY=    -1.6544
   XZ=     4.8254   YZ=    -2.8159   ZZ=    30.2585
   Eigenvalues:    25.9933    28.0576    37.8137
     22  H    Isotropic =    30.9607   Anisotropy =     8.1101
   XX=    30.0156   YX=     1.7121   ZX=     1.4181
   XY=     1.0191   YY=    33.0629   ZY=     4.0926
   XZ=     0.9822   YZ=     4.1275   ZZ=    29.8037
   Eigenvalues:    26.9928    29.5219    36.3674
     23  H    Isotropic =    30.5642   Anisotropy =    10.7046
   XX=    35.5221   YX=     3.3873   ZX=    -3.1968
   XY=     3.5211   YY=    27.3154   ZY=    -1.6010
   XZ=    -2.0446   YZ=    -0.6605   ZZ=    28.8552
   Eigenvalues:    26.0420    27.9501    37.7006
     24  H    Isotropic =    29.8881   Anisotropy =    12.2552
   XX=    28.8020   YX=    -0.9803   ZX=    -7.5668
   XY=    -1.2177   YY=    30.3812   ZY=     1.8940
   XZ=    -7.8962   YZ=     2.0822   ZZ=    30.4811
   Eigenvalues:    21.8330    29.7731    38.0582
     25  H    Isotropic =    29.8241   Anisotropy =     6.9685
   XX=    29.9634   YX=    -1.9685   ZX=     1.8953
   XY=    -1.4599   YY=    27.8786   ZY=    -3.2728
   XZ=     1.5994   YZ=    -2.5645   ZZ=    31.6302
   Eigenvalues:    26.1386    28.8638    34.4697
     26  H    Isotropic =    30.4075   Anisotropy =     6.7130
   XX=    30.8226   YX=     1.0369   ZX=    -2.2657
   XY=     0.3267   YY=    29.0336   ZY=    -3.7565
   XZ=    -1.3450   YZ=    -3.5270   ZZ=    31.3663
   Eigenvalues:    26.3110    30.0286    34.8828
     27  H    Isotropic =    30.5986   Anisotropy =     9.9668
   XX=    32.6619   YX=     4.5802   ZX=     2.3539
   XY=     3.6116   YY=    30.6376   ZY=     3.7971
   XZ=     1.4823   YZ=     2.4443   ZZ=    28.4963
   Eigenvalues:    26.0843    28.4684    37.2431
     28  H    Isotropic =    30.6206   Anisotropy =    10.5232
   XX=    36.4615   YX=    -2.7798   ZX=    -1.9418
   XY=    -1.9695   YY=    28.8515   ZY=     0.4522
   XZ=    -2.3784   YZ=     1.4612   ZZ=    26.5489
   Eigenvalues:    26.0082    28.2175    37.6360
     29  H    Isotropic =    30.7897   Anisotropy =     5.7111
   XX=    29.6709   YX=    -1.6206   ZX=     1.4020
   XY=    -1.5570   YY=    28.6059   ZY=     1.7904
   XZ=     1.3559   YZ=     0.7123   ZZ=    34.0924
   Eigenvalues:    26.9930    30.7791    34.5971
     30  H    Isotropic =    30.3033   Anisotropy =     7.3742
   XX=    32.2105   YX=     2.2559   ZX=    -2.6707
   XY=     3.1236   YY=    32.7630   ZY=     0.7732
   XZ=    -1.5697   YZ=     1.7448   ZZ=    25.9364
   Eigenvalues:    24.7521    30.9384    35.2194
     31  H    Isotropic =    30.6277   Anisotropy =    10.6149
   XX=    31.4447   YX=    -3.9567   ZX=    -1.1285
   XY=    -4.3214   YY=    33.4484   ZY=     2.9088
   XZ=    -1.8146   YZ=     3.0825   ZZ=    26.9900
   Eigenvalues:    25.8086    28.3702    37.7043
 End of Minotr Frequency-dependent properties file   721 does not exist.
 End of Minotr Frequency-dependent properties file   722 does not exist.

 **********************************************************************

            Population analysis using the SCF density.

 **********************************************************************

 Orbital symmetries:
       Occupied  (A) (A) (A) (A) (A) (A) (A) (A) (A) (A) (A) (A)
                 (A) (A) (A) (A) (A) (A) (A) (A) (A) (A) (A) (A)
                 (A) (A) (A) (A) (A) (A) (A) (A) (A) (A) (A) (A)
                 (A) (A) (A) (A) (A) (A) (A) (A)
       Virtual   (A) (A) (A) (A) (A) (A) (A) (A) (A) (A) (A) (A)
                 (A) (A) (A) (A) (A) (A) (A) (A) (A) (A) (A) (A)
                 (A) (A) (A) (A) (A) (A) (A) (A) (A) (A) (A) (A)
                 (A) (A) (A) (A) (A) (A) (A) (A) (A) (A) (A) (A)
                 (A) (A) (A) (A) (A) (A) (A) (A) (A) (A) (A) (A)
                 (A) (A) (A) (A) (A) (A) (A) (A) (A) (A) (A) (A)
                 (A) (A) (A) (A) (A) (A) (A) (A) (A) (A) (A) (A)
                 (A) (A) (A) (A) (A) (A) (A) (A) (A) (A) (A) (A)
                 (A) (A) (A) (A) (A) (A) (A) (A) (A) (A) (A) (A)
                 (A) (A) (A) (A) (A) (A) (A) (A) (A) (A) (A) (A)
                 (A) (A) (A) (A) (A) (A) (A) (A) (A) (A) (A) (A)
                 (A) (A) (A) (A) (A) (A) (A) (A) (A) (A) (A) (A)
                 (A) (A) (A) (A) (A) (A) (A) (A) (A) (A) (A) (A)
                 (A) (A) (A) (A) (A) (A) (A) (A) (A) (A) (A) (A)
                 (A) (A) (A) (A) (A) (A) (A) (A) (A) (A) (A) (A)
                 (A) (A) (A) (A) (A) (A) (A) (A) (A) (A) (A) (A)
                 (A) (A) (A) (A) (A) (A) (A) (A) (A) (A) (A) (A)
                 (A) (A) (A) (A) (A) (A) (A) (A) (A) (A) (A) (A)
                 (A) (A) (A) (A) (A) (A) (A) (A) (A) (A) (A) (A)
                 (A) (A) (A) (A) (A) (A) (A) (A) (A) (A) (A) (A)
                 (A) (A) (A) (A) (A) (A) (A) (A) (A) (A) (A) (A)
                 (A) (A) (A) (A) (A) (A) (A) (A) (A) (A) (A) (A)
                 (A)
 The electronic state is 1-A.
 Alpha  occ. eigenvalues --  -19.24359 -10.29458 -10.25536 -10.25359 -10.24882
 Alpha  occ. eigenvalues --  -10.24536 -10.24194 -10.23908 -10.23571 -10.23513
 Alpha  occ. eigenvalues --  -10.23317  -1.04830  -0.85928  -0.82307  -0.77040
 Alpha  occ. eigenvalues --   -0.75442  -0.70716  -0.69622  -0.63894  -0.62334
 Alpha  occ. eigenvalues --   -0.58595  -0.55627  -0.50823  -0.48803  -0.47489
 Alpha  occ. eigenvalues --   -0.46470  -0.45015  -0.43269  -0.43051  -0.42096
 Alpha  occ. eigenvalues --   -0.41138  -0.40352  -0.39117  -0.38122  -0.37693
 Alpha  occ. eigenvalues --   -0.37240  -0.36031  -0.34752  -0.33592  -0.33353
 Alpha  occ. eigenvalues --   -0.31892  -0.31442  -0.29984  -0.27862
 Alpha virt. eigenvalues --    0.00561   0.01594   0.01946   0.02524   0.03588
 Alpha virt. eigenvalues --    0.04161   0.04423   0.05022   0.05699   0.06807
 Alpha virt. eigenvalues --    0.07084   0.07654   0.08411   0.08585   0.08763
 Alpha virt. eigenvalues --    0.08996   0.09825   0.10648   0.11321   0.11399
 Alpha virt. eigenvalues --    0.12102   0.12882   0.13632   0.13850   0.14408
 Alpha virt. eigenvalues --    0.15021   0.15461   0.15736   0.16252   0.17003
 Alpha virt. eigenvalues --    0.18063   0.18209   0.18676   0.19158   0.19476
 Alpha virt. eigenvalues --    0.20001   0.20535   0.20807   0.21306   0.21534
 Alpha virt. eigenvalues --    0.22896   0.23266   0.23663   0.24155   0.24552
 Alpha virt. eigenvalues --    0.25426   0.26006   0.26402   0.27046   0.27409
 Alpha virt. eigenvalues --    0.27559   0.28435   0.29252   0.29498   0.29779
 Alpha virt. eigenvalues --    0.30651   0.31119   0.31941   0.32409   0.33471
 Alpha virt. eigenvalues --    0.34032   0.34713   0.35890   0.36918   0.37156
 Alpha virt. eigenvalues --    0.38088   0.38829   0.39106   0.39988   0.41614
 Alpha virt. eigenvalues --    0.42476   0.44837   0.45724   0.49614   0.50807
 Alpha virt. eigenvalues --    0.63631   0.64431   0.65155   0.65593   0.66790
 Alpha virt. eigenvalues --    0.67646   0.69145   0.70101   0.70845   0.72598
 Alpha virt. eigenvalues --    0.73661   0.74613   0.75148   0.76131   0.77719
 Alpha virt. eigenvalues --    0.78043   0.80560   0.81842   0.82571   0.83847
 Alpha virt. eigenvalues --    0.84707   0.88350   0.88725   0.90014   0.90669
 Alpha virt. eigenvalues --    0.93625   0.95586   0.98178   0.99836   1.00186
 Alpha virt. eigenvalues --    1.01217   1.01403   1.02155   1.03293   1.04873
 Alpha virt. eigenvalues --    1.06208   1.07882   1.08177   1.09862   1.10970
 Alpha virt. eigenvalues --    1.11347   1.13324   1.15406   1.15941   1.17056
 Alpha virt. eigenvalues --    1.17466   1.18120   1.19404   1.20784   1.22985
 Alpha virt. eigenvalues --    1.25076   1.26394   1.27176   1.29812   1.31391
 Alpha virt. eigenvalues --    1.36307   1.39224   1.41080   1.41657   1.45088
 Alpha virt. eigenvalues --    1.48246   1.49200   1.52171   1.53294   1.55823
 Alpha virt. eigenvalues --    1.58903   1.59120   1.61610   1.66112   1.67797
 Alpha virt. eigenvalues --    1.68748   1.72693   1.73894   1.78254   1.79817
 Alpha virt. eigenvalues --    1.81199   1.83654   1.85382   1.85866   1.88154
 Alpha virt. eigenvalues --    1.89054   1.90976   1.91438   1.92516   1.95030
 Alpha virt. eigenvalues --    1.97092   1.97924   1.99271   2.01410   2.02003
 Alpha virt. eigenvalues --    2.05015   2.05875   2.05989   2.07333   2.08235
 Alpha virt. eigenvalues --    2.09172   2.11027   2.13144   2.14602   2.15198
 Alpha virt. eigenvalues --    2.16182   2.17228   2.18017   2.18431   2.18651
 Alpha virt. eigenvalues --    2.21365   2.23487   2.24392   2.26744   2.29678
 Alpha virt. eigenvalues --    2.32455   2.34749   2.35331   2.35827   2.37518
 Alpha virt. eigenvalues --    2.38145   2.38533   2.39967   2.43125   2.44661
 Alpha virt. eigenvalues --    2.47134   2.50192   2.52166   2.55102   2.57203
 Alpha virt. eigenvalues --    2.58102   2.59784   2.61510   2.63346   2.64574
 Alpha virt. eigenvalues --    2.66067   2.67730   2.70569   2.71324   2.71943
 Alpha virt. eigenvalues --    2.72908   2.75285   2.75831   2.76437   2.78540
 Alpha virt. eigenvalues --    2.80363   2.81492   2.82237   2.84089   2.84969
 Alpha virt. eigenvalues --    2.86765   2.88156   2.89426   2.91504   2.91651
 Alpha virt. eigenvalues --    2.92615   2.93386   2.95721   2.98137   2.98910
 Alpha virt. eigenvalues --    3.00869   3.03792   3.04641   3.14896   3.29205
 Alpha virt. eigenvalues --    3.29297   3.30943   3.35134   3.38316   3.39540
 Alpha virt. eigenvalues --    3.40912   3.42433   3.47646   3.49457   3.50223
 Alpha virt. eigenvalues --    3.52146   3.53380   3.53522   3.54941   3.57179
 Alpha virt. eigenvalues --    3.58493   3.58960   3.62244   3.63779   4.32553
 Alpha virt. eigenvalues --    4.40959   4.42201   4.55721   4.59680   4.60697
 Alpha virt. eigenvalues --    4.62856   4.75317   4.83886   4.90134   4.95469
          Condensed to atoms (all electrons):
              1          2          3          4          5          6
     1  C    7.624026   0.290537   0.264968  -0.025044  -0.304289  -0.493775
     2  C    0.290537   8.253470   0.168508  -1.085016  -0.209993  -0.676296
     3  C    0.264968   0.168508   6.661858  -0.745502   0.097032  -0.093650
     4  C   -0.025044  -1.085016  -0.745502   7.886186  -0.337541  -0.088815
     5  C   -0.304289  -0.209993   0.097032  -0.337541   6.051807  -0.107559
     6  C   -0.493775  -0.676296  -0.093650  -0.088815  -0.107559   6.702843
     7  C   -1.238379  -0.612446  -0.271318   0.245962   0.222694   0.335176
     8  O    0.004220   0.381444  -0.003047  -0.111958  -0.024262  -0.138420
     9  C   -0.101515  -0.732792  -0.013783  -0.142337   0.176156   0.248403
    10  C    0.012526   0.108233  -0.128182   0.147130  -0.041307  -0.003115
    11  C    0.032481   0.027035   0.041222  -0.103557  -0.045689  -0.082411
    12  H    0.178423  -0.070110  -0.082530   0.046223   0.028857   0.036503
    13  H    0.027994   0.242346  -0.011995   0.025097  -0.007538  -0.003431
    14  H    0.001101  -0.032794   0.292984   0.071523  -0.029696  -0.010268
    15  H    0.027663   0.027287   0.471454  -0.145638  -0.036358  -0.015045
    16  H   -0.018616   0.026499  -0.030632   0.261678   0.030621   0.047967
    17  H   -0.013091   0.008180  -0.009050   0.034470   0.312349   0.031162
    18  H   -0.114142  -0.033128  -0.133257   0.079859   0.457641   0.019377
    19  H   -0.014116  -0.006109   0.005565   0.036440   0.036501   0.298688
    20  H   -0.102427  -0.079528  -0.035942   0.066019   0.009597   0.413016
    21  H   -0.103179   0.000235  -0.005478   0.003176   0.023141  -0.001097
    22  H   -0.155549  -0.009336  -0.007890   0.005262   0.012370   0.009189
    23  H   -0.129967  -0.012869  -0.001954   0.003638   0.002507   0.035626
    24  H    0.029749  -0.022481  -0.065567   0.078348  -0.002395  -0.035315
    25  H    0.003991   0.022207  -0.000399  -0.033212   0.015782  -0.021683
    26  H    0.001267  -0.002716   0.000694   0.011670   0.001882  -0.009946
    27  H   -0.000319   0.028602  -0.010157  -0.014199   0.000933   0.002178
    28  H   -0.000167   0.008475  -0.007916   0.036729   0.000086  -0.001152
    29  H    0.007391   0.037172  -0.001504  -0.010881   0.003224  -0.038114
    30  H   -0.004596  -0.054828   0.037209  -0.007980  -0.026031   0.028681
    31  H   -0.000398   0.003375   0.001689   0.027848  -0.000996   0.000358
              7          8          9         10         11         12
     1  C   -1.238379   0.004220  -0.101515   0.012526   0.032481   0.178423
     2  C   -0.612446   0.381444  -0.732792   0.108233   0.027035  -0.070110
     3  C   -0.271318  -0.003047  -0.013783  -0.128182   0.041222  -0.082530
     4  C    0.245962  -0.111958  -0.142337   0.147130  -0.103557   0.046223
     5  C    0.222694  -0.024262   0.176156  -0.041307  -0.045689   0.028857
     6  C    0.335176  -0.138420   0.248403  -0.003115  -0.082411   0.036503
     7  C    6.493424   0.037879   0.037527   0.001649  -0.010757   0.120633
     8  O    0.037879   8.172336  -0.018004   0.008164   0.002407   0.004678
     9  C    0.037527  -0.018004   6.835485  -0.264085   0.052415  -0.000645
    10  C    0.001649   0.008164  -0.264085   5.541740  -0.053457   0.000444
    11  C   -0.010757   0.002407   0.052415  -0.053457   5.455820  -0.001588
    12  H    0.120633   0.004678  -0.000645   0.000444  -0.001588   0.592632
    13  H    0.008527  -0.057492   0.055366  -0.005222  -0.001401  -0.000093
    14  H    0.010969  -0.000943   0.009862   0.001363   0.001194   0.002981
    15  H   -0.003711   0.000165  -0.005973  -0.000175   0.003379   0.000003
    16  H    0.000242  -0.009302  -0.005110  -0.018349  -0.008400  -0.000068
    17  H   -0.031279  -0.000034  -0.004833   0.000548  -0.000058  -0.004589
    18  H    0.029341   0.000182   0.014834   0.002893  -0.016646   0.005343
    19  H   -0.026687  -0.006201  -0.000332  -0.002377   0.004856  -0.004653
    20  H    0.047766   0.009397  -0.011480   0.003180  -0.010598   0.005296
    21  H    0.443481  -0.000125  -0.000315  -0.000031   0.000252  -0.003859
    22  H    0.493889   0.000073  -0.000017   0.000039   0.000421   0.005030
    23  H    0.461301   0.000074   0.000633   0.000020  -0.000278  -0.003787
    24  H    0.017776   0.233408   0.005661   0.001829   0.001494   0.001167
    25  H   -0.000061  -0.000359   0.283861  -0.000041  -0.003413  -0.000001
    26  H    0.000088  -0.000079  -0.099101   0.443020   0.001814   0.000000
    27  H    0.000033  -0.000117  -0.085825   0.435044   0.002645   0.000000
    28  H   -0.000010  -0.000006  -0.130914   0.458313  -0.003984   0.000000
    29  H   -0.000942  -0.000149  -0.096797  -0.003645   0.451148  -0.000002
    30  H    0.001719  -0.000053  -0.037390  -0.000763   0.422003  -0.000010
    31  H   -0.000387   0.000021  -0.116948   0.006656   0.437194   0.000000
             13         14         15         16         17         18
     1  C    0.027994   0.001101   0.027663  -0.018616  -0.013091  -0.114142
     2  C    0.242346  -0.032794   0.027287   0.026499   0.008180  -0.033128
     3  C   -0.011995   0.292984   0.471454  -0.030632  -0.009050  -0.133257
     4  C    0.025097   0.071523  -0.145638   0.261678   0.034470   0.079859
     5  C   -0.007538  -0.029696  -0.036358   0.030621   0.312349   0.457641
     6  C   -0.003431  -0.010268  -0.015045   0.047967   0.031162   0.019377
     7  C    0.008527   0.010969  -0.003711   0.000242  -0.031279   0.029341
     8  O   -0.057492  -0.000943   0.000165  -0.009302  -0.000034   0.000182
     9  C    0.055366   0.009862  -0.005973  -0.005110  -0.004833   0.014834
    10  C   -0.005222   0.001363  -0.000175  -0.018349   0.000548   0.002893
    11  C   -0.001401   0.001194   0.003379  -0.008400  -0.000058  -0.016646
    12  H   -0.000093   0.002981   0.000003  -0.000068  -0.004589   0.005343
    13  H    0.586841  -0.000151  -0.000107  -0.003174   0.000011  -0.000063
    14  H   -0.000151   0.560778  -0.027107  -0.008897  -0.005645   0.004898
    15  H   -0.000107  -0.027107   0.547662  -0.000524  -0.002137  -0.003731
    16  H   -0.003174  -0.008897  -0.000524   0.569378  -0.000118  -0.000125
    17  H    0.000011  -0.005645  -0.002137  -0.000118   0.553024  -0.030075
    18  H   -0.000063   0.004898  -0.003731  -0.000125  -0.030075   0.558251
    19  H   -0.004333  -0.000022   0.000011  -0.000158  -0.000132  -0.000025
    20  H   -0.003273   0.000055   0.000002  -0.000083  -0.000010   0.002833
    21  H   -0.000002   0.000001   0.000002   0.000000   0.000011   0.000004
    22  H   -0.000002   0.000001   0.000000   0.000000  -0.000186   0.003366
    23  H    0.000002  -0.000002  -0.000003   0.000000   0.002835  -0.000251
    24  H    0.007433   0.000671  -0.000139  -0.002010   0.000023   0.000006
    25  H    0.000055   0.000196   0.005410  -0.003927  -0.000016   0.000077
    26  H    0.001614   0.000002   0.000002  -0.000363   0.000000   0.000001
    27  H   -0.000064  -0.000007   0.000007   0.004212   0.000000   0.000000
    28  H   -0.000098   0.000002  -0.000009   0.000182   0.000000   0.000000
    29  H    0.000032  -0.000001   0.000030  -0.000051  -0.000002  -0.000024
    30  H    0.000154  -0.000058   0.000160  -0.000050   0.000132   0.001538
    31  H   -0.000044   0.000003  -0.000029  -0.000108  -0.000001   0.000116
             19         20         21         22         23         24
     1  C   -0.014116  -0.102427  -0.103179  -0.155549  -0.129967   0.029749
     2  C   -0.006109  -0.079528   0.000235  -0.009336  -0.012869  -0.022481
     3  C    0.005565  -0.035942  -0.005478  -0.007890  -0.001954  -0.065567
     4  C    0.036440   0.066019   0.003176   0.005262   0.003638   0.078348
     5  C    0.036501   0.009597   0.023141   0.012370   0.002507  -0.002395
     6  C    0.298688   0.413016  -0.001097   0.009189   0.035626  -0.035315
     7  C   -0.026687   0.047766   0.443481   0.493889   0.461301   0.017776
     8  O   -0.006201   0.009397  -0.000125   0.000073   0.000074   0.233408
     9  C   -0.000332  -0.011480  -0.000315  -0.000017   0.000633   0.005661
    10  C   -0.002377   0.003180  -0.000031   0.000039   0.000020   0.001829
    11  C    0.004856  -0.010598   0.000252   0.000421  -0.000278   0.001494
    12  H   -0.004653   0.005296  -0.003859   0.005030  -0.003787   0.001167
    13  H   -0.004333  -0.003273  -0.000002  -0.000002   0.000002   0.007433
    14  H   -0.000022   0.000055   0.000001   0.000001  -0.000002   0.000671
    15  H    0.000011   0.000002   0.000002   0.000000  -0.000003  -0.000139
    16  H   -0.000158  -0.000083   0.000000   0.000000   0.000000  -0.002010
    17  H   -0.000132  -0.000010   0.000011  -0.000186   0.002835   0.000023
    18  H   -0.000025   0.002833   0.000004   0.003366  -0.000251   0.000006
    19  H    0.536167  -0.027902   0.002706  -0.000175  -0.000010  -0.000859
    20  H   -0.027902   0.552065  -0.000252   0.003336   0.000005  -0.000089
    21  H    0.002706  -0.000252   0.528374  -0.027674  -0.025313  -0.000002
    22  H   -0.000175   0.003336  -0.027674   0.533474  -0.027863   0.000001
    23  H   -0.000010   0.000005  -0.025313  -0.027863   0.532459   0.000008
    24  H   -0.000859  -0.000089  -0.000002   0.000001   0.000008   0.400331
    25  H    0.000004   0.000016   0.000000   0.000000   0.000000  -0.000004
    26  H    0.000004   0.000027   0.000000   0.000000   0.000000  -0.000004
    27  H    0.000000  -0.000002   0.000000   0.000000   0.000000   0.000003
    28  H    0.000000  -0.000003   0.000000   0.000000   0.000000   0.000000
    29  H    0.000130   0.001348   0.000000  -0.000008   0.000000  -0.000001
    30  H    0.000013  -0.000713   0.000000  -0.000019   0.000001   0.000001
    31  H   -0.000002   0.000129   0.000000   0.000000   0.000000   0.000000
             25         26         27         28         29         30
     1  C    0.003991   0.001267  -0.000319  -0.000167   0.007391  -0.004596
     2  C    0.022207  -0.002716   0.028602   0.008475   0.037172  -0.054828
     3  C   -0.000399   0.000694  -0.010157  -0.007916  -0.001504   0.037209
     4  C   -0.033212   0.011670  -0.014199   0.036729  -0.010881  -0.007980
     5  C    0.015782   0.001882   0.000933   0.000086   0.003224  -0.026031
     6  C   -0.021683  -0.009946   0.002178  -0.001152  -0.038114   0.028681
     7  C   -0.000061   0.000088   0.000033  -0.000010  -0.000942   0.001719
     8  O   -0.000359  -0.000079  -0.000117  -0.000006  -0.000149  -0.000053
     9  C    0.283861  -0.099101  -0.085825  -0.130914  -0.096797  -0.037390
    10  C   -0.000041   0.443020   0.435044   0.458313  -0.003645  -0.000763
    11  C   -0.003413   0.001814   0.002645  -0.003984   0.451148   0.422003
    12  H   -0.000001   0.000000   0.000000   0.000000  -0.000002  -0.000010
    13  H    0.000055   0.001614  -0.000064  -0.000098   0.000032   0.000154
    14  H    0.000196   0.000002  -0.000007   0.000002  -0.000001  -0.000058
    15  H    0.005410   0.000002   0.000007  -0.000009   0.000030   0.000160
    16  H   -0.003927  -0.000363   0.004212   0.000182  -0.000051  -0.000050
    17  H   -0.000016   0.000000   0.000000   0.000000  -0.000002   0.000132
    18  H    0.000077   0.000001   0.000000   0.000000  -0.000024   0.001538
    19  H    0.000004   0.000004   0.000000   0.000000   0.000130   0.000013
    20  H    0.000016   0.000027  -0.000002  -0.000003   0.001348  -0.000713
    21  H    0.000000   0.000000   0.000000   0.000000   0.000000   0.000000
    22  H    0.000000   0.000000   0.000000   0.000000  -0.000008  -0.000019
    23  H    0.000000   0.000000   0.000000   0.000000   0.000000   0.000001
    24  H   -0.000004  -0.000004   0.000003   0.000000  -0.000001   0.000001
    25  H    0.586959   0.005052  -0.003776  -0.004128   0.005128  -0.003691
    26  H    0.005052   0.537045  -0.027777  -0.028191   0.003245  -0.000014
    27  H   -0.003776  -0.027777   0.529775  -0.024845   0.000013  -0.000141
    28  H   -0.004128  -0.028191  -0.024845   0.530939  -0.000216   0.000053
    29  H    0.005128   0.003245   0.000013  -0.000216   0.538183  -0.028762
    30  H   -0.003691  -0.000014  -0.000141   0.000053  -0.028762   0.543704
    31  H   -0.004149  -0.000179   0.000089   0.002811  -0.028184  -0.026205
             31
     1  C   -0.000398
     2  C    0.003375
     3  C    0.001689
     4  C    0.027848
     5  C   -0.000996
     6  C    0.000358
     7  C   -0.000387
     8  O    0.000021
     9  C   -0.116948
    10  C    0.006656
    11  C    0.437194
    12  H    0.000000
    13  H   -0.000044
    14  H    0.000003
    15  H   -0.000029
    16  H   -0.000108
    17  H   -0.000001
    18  H    0.000116
    19  H   -0.000002
    20  H    0.000129
    21  H    0.000000
    22  H    0.000000
    23  H    0.000000
    24  H    0.000000
    25  H   -0.004149
    26  H   -0.000179
    27  H    0.000089
    28  H    0.002811
    29  H   -0.028184
    30  H   -0.026205
    31  H    0.532666
 Mulliken atomic charges:
              1
     1  C    0.313232
     2  C    0.006837
     3  C   -0.383430
     4  C   -0.215578
     5  C   -0.309528
     6  C   -0.389076
     7  C   -0.814100
     8  O   -0.483899
     9  C    0.147992
    10  C   -0.652043
    11  C   -0.595544
    12  H    0.143722
    13  H    0.143011
    14  H    0.157008
    15  H    0.157449
    16  H    0.169284
    17  H    0.158511
    18  H    0.150904
    19  H    0.173010
    20  H    0.158213
    21  H    0.165944
    22  H    0.162267
    23  H    0.163188
    24  H    0.350960
    25  H    0.150121
    26  H    0.160944
    27  H    0.163696
    28  H    0.164048
    29  H    0.162240
    30  H    0.155938
    31  H    0.164677
 Sum of Mulliken atomic charges =   0.00000
 Mulliken charges with hydrogens summed into heavy atoms:
              1
     1  C    0.456954
     2  C    0.149849
     3  C   -0.068972
     4  C   -0.046294
     5  C   -0.000112
     6  C   -0.057853
     7  C   -0.322701
     8  O   -0.132939
     9  C    0.298113
    10  C   -0.163355
    11  C   -0.112689
 Sum of Mulliken charges with hydrogens summed into heavy atoms =   0.00000
 Electronic spatial extent (au):  <R**2>=           2031.8025
 Charge=              0.0000 electrons
 Dipole moment (field-independent basis, Debye):
    X=             -0.4320    Y=             -1.9793    Z=              0.8258  Tot=              2.1878
 Quadrupole moment (field-independent basis, Debye-Ang):
   XX=            -70.2004   YY=            -79.5142   ZZ=            -70.2573
   XY=             -2.0546   XZ=             -1.2545   YZ=              1.9880
 Traceless Quadrupole moment (field-independent basis, Debye-Ang):
   XX=              3.1236   YY=             -6.1903   ZZ=              3.0667
   XY=             -2.0546   XZ=             -1.2545   YZ=              1.9880
 Octapole moment (field-independent basis, Debye-Ang**2):
  XXX=             -1.1813  YYY=            -15.5213  ZZZ=              1.2939  XYY=             -2.8769
  XXY=              4.7625  XXZ=              3.2956  XZZ=             -1.3580  YZZ=              6.8329
  YYZ=              7.0394  XYZ=             -2.5113
 Hexadecapole moment (field-independent basis, Debye-Ang**3):
 XXXX=          -1702.5882 YYYY=           -736.0855 ZZZZ=           -453.9944 XXXY=            -20.7159
 XXXZ=             -3.5999 YYYX=            -15.4218 YYYZ=             18.6607 ZZZX=             -1.3835
 ZZZY=             -3.1123 XXYY=           -383.7639 XXZZ=           -354.5097 YYZZ=           -177.7208
 XXYZ=              0.1261 YYXZ=             -7.4897 ZZXY=             -2.6898
 N-N= 6.966459105481D+02 E-N=-2.478385429880D+03  KE= 4.636893481885D+02
 1\1\GINC-COMPUTE-10-6\SP\RmPW1PW91\6-31+G(d,p)\C10H20O1\ASAROTTI.IQUIR
 \19-Sep-2024\0\\# mPW1PW91/6-31+G** nmr scrf=(pcm,solvent=benzene)\\co
 mment\\0,1\C,0,-2.047613,-0.054798,-0.004768\C,0,0.177736,1.148911,-0.
 477413\C,0,-0.123913,-0.222998,1.658274\C,0,0.900364,0.370206,0.654964
 \C,0,-1.33112,-0.938586,1.030266\C,0,-1.041491,0.417649,-1.069262\C,0,
 -3.247482,-0.767354,-0.637808\O,0,-0.200549,2.457953,-0.020949\C,0,2.0
 14599,-0.623482,0.200238\C,0,3.244594,0.134182,-0.332967\C,0,1.616396,
 -1.721593,-0.800585\H,0,-2.43281,0.834725,0.521857\H,0,0.886976,1.3579
 69,-1.284962\H,0,-0.510934,0.599899,2.279112\H,0,0.394536,-0.893631,2.
 35587\H,0,1.446569,1.14731,1.206011\H,0,-2.03318,-1.230617,1.823198\H,
 0,-1.017492,-1.871049,0.542602\H,0,-1.529627,1.09778,-1.778418\H,0,-0.
 705175,-0.45476,-1.64431\H,0,-3.766376,-0.116541,-1.351529\H,0,-2.9272
 63,-1.666787,-1.179501\H,0,-3.972976,-1.078058,0.123755\H,0,-0.818511,
 2.344861,0.717894\H,0,2.334215,-1.134234,1.121568\H,0,3.025281,0.65930
 4,-1.270627\H,0,3.602091,0.878422,0.388091\H,0,4.068923,-0.559955,-0.5
 35367\H,0,1.33954,-1.302625,-1.775297\H,0,0.782051,-2.334596,-0.447274
 \H,0,2.466126,-2.393863,-0.970724\\Version=AM64L-G09RevC.01\State=1-A\
 HF=-468.2761678\RMSD=7.525e-09\Dipole=-0.1699803,-0.7787302,0.3248821\
 Quadrupole=2.3223184,-4.6023054,2.2799871,-1.5275116,-0.9327194,1.4780
 241\PG=C01 [X(C10H20O1)]\\@


 THE MOST BEAUTIFUL EXPERIENCE WE CAN HAVE IS THE MYSTERIOUS.
 IT IS THE FUNDAMENTAL EMOTION WHICH STANDS AT AT THE CRADLE 
 OF TRUE ART AND TRUE SCIENCE.

                                    -- ALBERT EINSTEIN
 Job cpu time:  0 days  0 hours 12 minutes  0.3 seconds.
 File lengths (MBytes):  RWF=    121 Int=      0 D2E=      0 Chk=      7 Scr=      1
 Normal termination of Gaussian 09 at Thu Sep 19 09:12:40 2024.
