 Entering Gaussian System, Link 0=g09
 Input=/home/asarotti.iquir/SCF2/02_Mentol05_OptB_NMR_benzene.gjc
 Output=/home/asarotti.iquir/SCF2/02_Mentol05_OptB_NMR_benzene.log
 Initial command:
 /opt/ohpc/pub/apps/software/Gaussian/09/AMD64.SSE4a-enabled/g09/l1.exe /local/asarotti.iquir/Gau-1836358.inp -scrdir=/local/asarotti.iquir/
 Entering Link 1 = /opt/ohpc/pub/apps/software/Gaussian/09/AMD64.SSE4a-enabled/g09/l1.exe PID=   1836359.
  
 Copyright (c) 1988,1990,1992,1993,1995,1998,2003,2009,2011,
            Gaussian, Inc.  All Rights Reserved.
  
 This is part of the Gaussian(R) 09 program.  It is based on
 the Gaussian(R) 03 system (copyright 2003, Gaussian, Inc.),
 the Gaussian(R) 98 system (copyright 1998, Gaussian, Inc.),
 the Gaussian(R) 94 system (copyright 1995, Gaussian, Inc.),
 the Gaussian 92(TM) system (copyright 1992, Gaussian, Inc.),
 the Gaussian 90(TM) system (copyright 1990, Gaussian, Inc.),
 the Gaussian 88(TM) system (copyright 1988, Gaussian, Inc.),
 the Gaussian 86(TM) system (copyright 1986, Carnegie Mellon
 University), and the Gaussian 82(TM) system (copyright 1983,
 Carnegie Mellon University). Gaussian is a federally registered
 trademark of Gaussian, Inc.
  
 This software contains proprietary and confidential information,
 including trade secrets, belonging to Gaussian, Inc.
  
 This software is provided under written license and may be
 used, copied, transmitted, or stored only in accord with that
 written license.
  
 The following legend is applicable only to US Government
 contracts under FAR:
  
                    RESTRICTED RIGHTS LEGEND
  
 Use, reproduction and disclosure by the US Government is
 subject to restrictions as set forth in subparagraphs (a)
 and (c) of the Commercial Computer Software - Restricted
 Rights clause in FAR 52.227-19.
  
 Gaussian, Inc.
 340 Quinnipiac St., Bldg. 40, Wallingford CT 06492
  
  
 ---------------------------------------------------------------
 Warning -- This program may not be used in any manner that
 competes with the business of Gaussian, Inc. or will provide
 assistance to any competitor of Gaussian, Inc.  The licensee
 of this program is prohibited from giving any competitor of
 Gaussian, Inc. access to this program.  By using this program,
 the user acknowledges that Gaussian, Inc. is engaged in the
 business of creating and licensing software in the field of
 computational chemistry and represents and warrants to the
 licensee that it is not a competitor of Gaussian, Inc. and that
 it will not use this program in any manner prohibited above.
 ---------------------------------------------------------------
  

 Cite this work as:
 Gaussian 09, Revision C.01,
 M. J. Frisch, G. W. Trucks, H. B. Schlegel, G. E. Scuseria, 
 M. A. Robb, J. R. Cheeseman, G. Scalmani, V. Barone, B. Mennucci, 
 G. A. Petersson, H. Nakatsuji, M. Caricato, X. Li, H. P. Hratchian, 
 A. F. Izmaylov, J. Bloino, G. Zheng, J. L. Sonnenberg, M. Hada, 
 M. Ehara, K. Toyota, R. Fukuda, J. Hasegawa, M. Ishida, T. Nakajima, 
 Y. Honda, O. Kitao, H. Nakai, T. Vreven, J. A. Montgomery, Jr., 
 J. E. Peralta, F. Ogliaro, M. Bearpark, J. J. Heyd, E. Brothers, 
 K. N. Kudin, V. N. Staroverov, T. Keith, R. Kobayashi, J. Normand, 
 K. Raghavachari, A. Rendell, J. C. Burant, S. S. Iyengar, J. Tomasi, 
 M. Cossi, N. Rega, J. M. Millam, M. Klene, J. E. Knox, J. B. Cross, 
 V. Bakken, C. Adamo, J. Jaramillo, R. Gomperts, R. E. Stratmann, 
 O. Yazyev, A. J. Austin, R. Cammi, C. Pomelli, J. W. Ochterski, 
 R. L. Martin, K. Morokuma, V. G. Zakrzewski, G. A. Voth, 
 P. Salvador, J. J. Dannenberg, S. Dapprich, A. D. Daniels, 
 O. Farkas, J. B. Foresman, J. V. Ortiz, J. Cioslowski, 
 and D. J. Fox, Gaussian, Inc., Wallingford CT, 2010.
 
 ******************************************
 Gaussian 09:  AM64L-G09RevC.01 23-Sep-2011
                19-Sep-2024 
 ******************************************
 %nprocshared=4
 Will use up to    4 processors via shared memory.
 %mem=100mw
 --------------------------------------------------
 # mPW1PW91/6-31+G** nmr scrf=(pcm,solvent=benzene)
 --------------------------------------------------
 1/38=1/1;
 2/12=2,17=6,18=5,40=1/2;
 3/5=1,6=6,7=111,11=2,16=1,25=1,30=1,70=2201,72=12,74=-7/1,2,8,3;
 4//1;
 5/5=2,38=5,53=12/2;
 8/6=1,10=90,11=11/1;
 10/13=100,45=16/2;
 6/7=2,8=2,9=2,10=2,28=1/1;
 99/9=1/99;
 -------
 comment
 -------
 Charge =  0 Multiplicity = 1
 Symbolic Z-Matrix:
 6                    -2.04284  -0.28748  -0.07136 
 6                    -0.07577   1.36558  -0.0506 
 6                    -0.0035   -0.67521   1.40078 
 6                     0.85943   0.30809   0.57762 
 6                    -1.11379  -1.33527   0.5678 
 6                    -1.2147    0.7345   -0.86995 
 6                    -3.12796  -0.93242  -0.94029 
 8                    -0.59246   2.13588   1.04556 
 6                     1.79988  -0.36814  -0.46357 
 6                     2.61149  -1.52229   0.15184 
 6                     2.77315   0.64233  -1.099 
 1                    -2.5346    0.25778   0.74702 
 1                     0.50276   2.03184  -0.70639 
 1                    -0.46588  -0.10843   2.21698 
 1                     0.62581  -1.43722   1.87152 
 1                     1.50614   0.85269   1.28119 
 1                    -1.70249  -2.01247   1.20125 
 1                    -0.67575  -1.96113  -0.22489 
 1                    -1.86881   1.53414  -1.25167 
 1                    -0.78793   0.24956  -1.76001 
 1                    -3.80308  -0.17881  -1.36466 
 1                    -2.6847   -1.48893  -1.77674 
 1                    -3.73615  -1.63629  -0.35921 
 1                    -1.21043   2.78676   0.67754 
 1                     1.18853  -0.79519  -1.2717 
 1                     3.18433  -1.18006   1.02393 
 1                     1.97902  -2.35522   0.47374 
 1                     3.32698  -1.91839  -0.57839 
 1                     3.39419   1.11962  -0.32952 
 1                     2.26262   1.43659  -1.65253 
 1                     3.44684   0.138    -1.80165 
 
                          Input orientation:                          
 ---------------------------------------------------------------------
 Center     Atomic      Atomic             Coordinates (Angstroms)
 Number     Number       Type             X           Y           Z
 ---------------------------------------------------------------------
      1          6           0       -2.042841   -0.287476   -0.071356
      2          6           0       -0.075773    1.365579   -0.050603
      3          6           0       -0.003500   -0.675214    1.400780
      4          6           0        0.859428    0.308094    0.577622
      5          6           0       -1.113793   -1.335271    0.567803
      6          6           0       -1.214702    0.734502   -0.869950
      7          6           0       -3.127955   -0.932420   -0.940288
      8          8           0       -0.592458    2.135878    1.045555
      9          6           0        1.799879   -0.368144   -0.463565
     10          6           0        2.611490   -1.522294    0.151844
     11          6           0        2.773146    0.642332   -1.098998
     12          1           0       -2.534600    0.257783    0.747018
     13          1           0        0.502757    2.031839   -0.706389
     14          1           0       -0.465878   -0.108428    2.216983
     15          1           0        0.625809   -1.437217    1.871517
     16          1           0        1.506143    0.852689    1.281192
     17          1           0       -1.702490   -2.012474    1.201249
     18          1           0       -0.675749   -1.961129   -0.224890
     19          1           0       -1.868810    1.534138   -1.251667
     20          1           0       -0.787931    0.249559   -1.760006
     21          1           0       -3.803078   -0.178811   -1.364657
     22          1           0       -2.684704   -1.488927   -1.776737
     23          1           0       -3.736150   -1.636289   -0.359206
     24          1           0       -1.210428    2.786762    0.677536
     25          1           0        1.188534   -0.795187   -1.271695
     26          1           0        3.184328   -1.180059    1.023927
     27          1           0        1.979019   -2.355222    0.473743
     28          1           0        3.326981   -1.918391   -0.578388
     29          1           0        3.394186    1.119620   -0.329522
     30          1           0        2.262622    1.436589   -1.652525
     31          1           0        3.446840    0.137997   -1.801652
 ---------------------------------------------------------------------
                    Distance matrix (angstroms):
                    1          2          3          4          5
     1  C    0.000000
     2  C    2.569509   0.000000
     3  C    2.544884   2.505309   0.000000
     4  C    3.032992   1.545167   1.545681   0.000000
     5  C    1.539327   2.958801   1.536970   2.567946   0.000000
     6  C    1.538833   1.538424   2.934369   2.565015   2.522157
     7  C    1.532471   3.922774   3.912668   4.443214   2.548230
     8  O    3.037062   1.435927   2.894010   2.380699   3.542444
     9  C    3.863526   2.587355   2.611944   1.557503   3.238601
    10  C    4.820518   3.949959   3.019198   2.569305   3.753096
    11  C    5.011419   3.120666   3.961639   2.566142   4.668772
    12  H    1.099486   2.812337   2.775672   3.398625   2.142109
    13  H    3.501794   1.099388   3.467650   2.178806   3.946420
    14  H    2.784846   2.732549   1.096005   2.148821   2.155164
    15  H    3.495476   3.470220   1.094656   2.185144   2.176299
    16  H    3.965432   2.130538   2.151235   1.099925   3.487142
    17  H    2.170479   3.952794   2.171323   3.512459   1.098372
    18  H    2.166478   3.384868   2.179059   2.854850   1.100883
    19  H    2.177544   2.164705   3.923786   3.506104   3.480521
    20  H    2.171346   2.162112   3.385425   2.860371   2.834884
    21  H    2.186977   4.243192   4.725553   5.074297   3.507714
    22  H    2.182612   4.234887   4.236461   4.618784   2.826347
    23  H    2.183907   4.743923   4.237203   5.077165   2.797626
    24  H    3.271802   1.958926   3.736982   3.230802   4.124626
    25  H    3.484303   2.785399   2.928730   2.178420   2.996023
    26  H    5.414762   4.273540   3.249482   2.796238   4.325042
    27  H    4.555004   4.282694   2.759023   2.890939   3.258011
    28  H    5.634887   4.758335   4.068747   3.518865   4.623230
    29  H    5.622084   3.489829   4.214219   2.811847   5.210907
    30  H    4.899950   2.835364   4.349447   2.866358   4.900331
    31  H    5.771616   4.120914   4.777209   3.519173   5.346420
                    6          7          8          9         10
     6  C    0.000000
     7  C    2.538526   0.000000
     8  O    2.453610   4.448232   0.000000
     9  C    3.235533   4.982893   3.777677   0.000000
    10  C    4.558172   5.872132   4.944312   1.539319   0.000000
    11  C    3.995484   6.109667   4.261112   1.540158   2.505263
    12  H    2.141022   2.148408   2.718139   4.543677   5.477696
    13  H    2.158588   4.692932   2.068726   2.738870   4.220803
    14  H    3.286400   4.211173   2.534793   3.519438   3.966612
    15  H    3.952149   4.717183   3.864375   2.823821   2.628201
    16  H    3.470501   5.440262   2.471078   2.149626   2.852676
    17  H    3.474720   2.790098   4.297119   4.212127   4.466761
    18  H    2.823650   2.753788   4.290272   2.953523   3.337731
    19  H    1.101355   2.786810   2.695996   4.207025   5.602206
    20  H    1.099774   2.746766   3.386382   2.959574   4.283771
    21  H    2.789008   1.097181   4.634111   5.678111   6.726916
    22  H    2.815458   1.098098   5.047974   4.805420   5.636507
    23  H    3.498458   1.096809   5.107386   5.680378   6.369199
    24  H    2.570312   4.486266   0.970039   4.507493   5.783716
    25  H    2.876959   4.331367   4.139169   1.099628   2.140082
    26  H    5.157885   6.615465   5.025935   2.188273   1.098088
    27  H    4.642387   5.486805   5.206673   2.204340   1.094261
    28  H    5.267802   6.539825   5.868244   2.179103   1.096385
    29  H    4.656418   6.864563   4.337851   2.184771   2.797148
    30  H    3.632786   5.931088   3.990003   2.210162   3.483166
    31  H    4.791019   6.716820   5.330483   2.181544   2.696391
                   11         12         13         14         15
    11  C    0.000000
    12  H    5.632745   0.000000
    13  H    2.690639   3.805943   0.000000
    14  H    4.695812   2.564082   3.750347   0.000000
    15  H    4.214207   3.758418   4.323782   1.754083   0.000000
    16  H    2.704598   4.119085   2.519456   2.385019   2.523319
    17  H    5.689503   2.460244   4.985846   2.487231   2.490212
    18  H    4.408736   3.053441   4.191004   3.072343   2.522590
    19  H    4.729311   2.463148   2.483821   4.086291   4.980598
    20  H    3.643140   3.055502   2.439776   4.006035   4.246391
    21  H    6.632614   2.501764   4.884722   4.895917   5.627739
    22  H    5.898281   3.072925   4.868403   4.772711   4.926655
    23  H    6.936162   2.500992   5.616407   4.434612   4.903309
    24  H    4.860403   2.855520   2.328124   3.362496   4.758083
    25  H    2.146458   4.364135   2.963433   3.921682   3.257091
    26  H    2.827895   5.903406   4.527815   3.986951   2.707500
    27  H    3.476993   5.222569   4.776857   3.750265   2.151205
    28  H    2.671155   6.391445   4.857668   5.047360   3.678300
    29  H    1.097993   6.087052   3.055247   4.784651   4.364161
    30  H    1.094473   5.491878   2.084855   4.980450   4.832886
    31  H    1.096330   6.502899   3.667951   5.614224   4.892002
                   16         17         18         19         20
    16  H    0.000000
    17  H    4.302427   0.000000
    18  H    3.866071   1.758040   0.000000
    19  H    4.274349   4.315428   3.833348   0.000000
    20  H    3.856867   3.836957   2.693753   1.754096   0.000000
    21  H    6.020991   3.789283   3.775700   2.586185   3.070979
    22  H    5.691862   3.179190   2.582074   3.174949   2.573006
    23  H    6.030552   2.590812   3.080522   3.786166   3.769703
    24  H    3.388923   4.852738   4.862378   2.392563   3.543658
    25  H    3.055095   3.994404   2.435318   3.843632   2.288308
    26  H    2.648500   4.960378   4.131562   6.170851   5.056969
    27  H    3.341598   3.768322   2.773300   5.736719   4.408008
    28  H    3.801628   5.335873   4.018536   6.274512   4.798826
    29  H    2.496069   6.174899   5.105520   5.359226   4.504819
    30  H    3.085433   5.980148   4.713455   4.151979   3.275128
    31  H    3.712279   6.336998   4.887561   5.523389   4.236445
                   21         22         23         24         25
    21  H    0.000000
    22  H    1.771151   0.000000
    23  H    1.771907   1.771059   0.000000
    24  H    4.437005   5.145723   5.197835   0.000000
    25  H    5.030383   3.967155   5.078642   4.731266   0.000000
    26  H    7.451958   6.510350   7.072073   5.930391   3.066138
    27  H    6.445861   5.250280   5.820122   6.054263   2.470856
    28  H    7.381199   6.144985   7.072160   6.656117   2.513010
    29  H    7.386341   6.771400   7.644449   4.999600   3.069051
    30  H    6.283717   5.748922   6.862982   4.394796   2.505897
    31  H    7.269982   6.343763   7.538175   5.903598   2.500327
                   26         27         28         29         30
    26  H    0.000000
    27  H    1.771011   0.000000
    28  H    1.769999   1.764880   0.000000
    29  H    2.676637   3.836986   3.048928   0.000000
    30  H    3.854839   4.356521   3.680016   1.769532   0.000000
    31  H    3.128910   3.680769   2.395720   1.770176   1.763789
                   31
    31  H    0.000000
 Stoichiometry    C10H20O
 Framework group  C1[X(C10H20O)]
 Deg. of freedom    87
 Full point group                 C1      NOp   1
 Largest Abelian subgroup         C1      NOp   1
 Largest concise Abelian subgroup C1      NOp   1
                         Standard orientation:                         
 ---------------------------------------------------------------------
 Center     Atomic      Atomic             Coordinates (Angstroms)
 Number     Number       Type             X           Y           Z
 ---------------------------------------------------------------------
      1          6           0       -2.042841   -0.287476   -0.071356
      2          6           0       -0.075773    1.365579   -0.050603
      3          6           0       -0.003500   -0.675214    1.400780
      4          6           0        0.859428    0.308094    0.577622
      5          6           0       -1.113793   -1.335271    0.567803
      6          6           0       -1.214702    0.734502   -0.869950
      7          6           0       -3.127955   -0.932420   -0.940288
      8          8           0       -0.592458    2.135878    1.045555
      9          6           0        1.799879   -0.368144   -0.463565
     10          6           0        2.611490   -1.522294    0.151844
     11          6           0        2.773146    0.642332   -1.098998
     12          1           0       -2.534600    0.257783    0.747018
     13          1           0        0.502757    2.031839   -0.706389
     14          1           0       -0.465878   -0.108428    2.216983
     15          1           0        0.625809   -1.437217    1.871517
     16          1           0        1.506143    0.852689    1.281192
     17          1           0       -1.702490   -2.012474    1.201249
     18          1           0       -0.675749   -1.961129   -0.224890
     19          1           0       -1.868810    1.534138   -1.251667
     20          1           0       -0.787931    0.249559   -1.760006
     21          1           0       -3.803078   -0.178811   -1.364657
     22          1           0       -2.684704   -1.488927   -1.776737
     23          1           0       -3.736150   -1.636289   -0.359206
     24          1           0       -1.210428    2.786762    0.677536
     25          1           0        1.188534   -0.795187   -1.271695
     26          1           0        3.184328   -1.180059    1.023927
     27          1           0        1.979019   -2.355222    0.473743
     28          1           0        3.326981   -1.918391   -0.578388
     29          1           0        3.394186    1.119620   -0.329522
     30          1           0        2.262622    1.436589   -1.652525
     31          1           0        3.446840    0.137997   -1.801652
 ---------------------------------------------------------------------
 Rotational constants (GHZ):      1.4915713      0.7706470      0.6664359
 Standard basis: 6-31+G(d,p) (6D, 7F)
 There are   309 symmetry adapted basis functions of A   symmetry.
 Integral buffers will be    131072 words long.
 Raffenetti 2 integral format.
 Two-electron integral symmetry is turned on.
   309 basis functions,   492 primitive gaussians,   309 cartesian basis functions
    44 alpha electrons       44 beta electrons
       nuclear repulsion energy       696.5224316051 Hartrees.
 NAtoms=   31 NActive=   31 NUniq=   31 SFac= 1.00D+00 NAtFMM=   60 NAOKFM=F Big=F
 ------------------------------------------------------------------------------
 Polarizable Continuum Model (PCM)
 =================================
 Model                : PCM.
 Atomic radii         : UFF (Universal Force Field).
 Polarization charges : Total charges.
 Charge compensation  : None.
 Solution method      : Matrix inversion.
 Cavity type          : Scaled VdW (van der Waals Surface) (Alpha=1.100).
 Cavity algorithm     : GePol (No added spheres)
                        Default sphere list used, NSphG=   31.
                        Lebedev-Laikov grids with approx.  5.0 points / Ang**2.
                        Smoothing algorithm: Karplus/York (Gamma=1.0000).
                        Polarization charges: spherical gaussians, with
                                              point-specific exponents (IZeta= 3).
                        Self-potential: point-specific (ISelfS= 7).
                        Self-field    : sphere-specific E.n sum rule (ISelfD= 2).
 Solvent              : Benzene, Eps=   2.270600 Eps(inf)=   2.253301
 ------------------------------------------------------------------------------
 One-electron integrals computed using PRISM.
 NBasis=   309 RedAO= T  NBF=   309
 NBsUse=   309 1.00D-06 NBFU=   309
 Harris functional with IExCor=  908 diagonalized for initial guess.
 ExpMin= 4.38D-02 ExpMax= 5.48D+03 ExpMxC= 8.25D+02 IAcc=2 IRadAn=         4 AccDes= 0.00D+00
 HarFok:  IExCor=  908 AccDes= 0.00D+00 IRadAn=         4 IDoV= 1
 ScaDFX=  1.000000  1.000000  1.000000  1.000000
 FoFCou: FMM=F IPFlag=           0 FMFlag=      100000 FMFlg1=           0
         NFxFlg=           0 DoJE=T BraDBF=F KetDBF=T FulRan=T
         Omega=  0.000000  0.000000  1.000000  0.000000  0.000000 ICntrl=     500 IOpCl=  0
         NMat0=    1 NMatS0=    1 NMatT0=    0 NMatD0=    1 NMtDS0=    0 NMtDT0=    0
         I1Cent=           4 NGrid=           0.
 Petite list used in FoFCou.
 Initial guess orbital symmetries:
       Occupied  (A) (A) (A) (A) (A) (A) (A) (A) (A) (A) (A) (A)
                 (A) (A) (A) (A) (A) (A) (A) (A) (A) (A) (A) (A)
                 (A) (A) (A) (A) (A) (A) (A) (A) (A) (A) (A) (A)
                 (A) (A) (A) (A) (A) (A) (A) (A)
       Virtual   (A) (A) (A) (A) (A) (A) (A) (A) (A) (A) (A) (A)
                 (A) (A) (A) (A) (A) (A) (A) (A) (A) (A) (A) (A)
                 (A) (A) (A) (A) (A) (A) (A) (A) (A) (A) (A) (A)
                 (A) (A) (A) (A) (A) (A) (A) (A) (A) (A) (A) (A)
                 (A) (A) (A) (A) (A) (A) (A) (A) (A) (A) (A) (A)
                 (A) (A) (A) (A) (A) (A) (A) (A) (A) (A) (A) (A)
                 (A) (A) (A) (A) (A) (A) (A) (A) (A) (A) (A) (A)
                 (A) (A) (A) (A) (A) (A) (A) (A) (A) (A) (A) (A)
                 (A) (A) (A) (A) (A) (A) (A) (A) (A) (A) (A) (A)
                 (A) (A) (A) (A) (A) (A) (A) (A) (A) (A) (A) (A)
                 (A) (A) (A) (A) (A) (A) (A) (A) (A) (A) (A) (A)
                 (A) (A) (A) (A) (A) (A) (A) (A) (A) (A) (A) (A)
                 (A) (A) (A) (A) (A) (A) (A) (A) (A) (A) (A) (A)
                 (A) (A) (A) (A) (A) (A) (A) (A) (A) (A) (A) (A)
                 (A) (A) (A) (A) (A) (A) (A) (A) (A) (A) (A) (A)
                 (A) (A) (A) (A) (A) (A) (A) (A) (A) (A) (A) (A)
                 (A) (A) (A) (A) (A) (A) (A) (A) (A) (A) (A) (A)
                 (A) (A) (A) (A) (A) (A) (A) (A) (A) (A) (A) (A)
                 (A) (A) (A) (A) (A) (A) (A) (A) (A) (A) (A) (A)
                 (A) (A) (A) (A) (A) (A) (A) (A) (A) (A) (A) (A)
                 (A) (A) (A) (A) (A) (A) (A) (A) (A) (A) (A) (A)
                 (A) (A) (A) (A) (A) (A) (A) (A) (A) (A) (A) (A)
                 (A)
 The electronic state of the initial guess is 1-A.
 Requested convergence on RMS density matrix=1.00D-08 within 128 cycles.
 Requested convergence on MAX density matrix=1.00D-06.
 Requested convergence on             energy=1.00D-06.
 No special actions if energy rises.
 Error on total polarization charges =  0.00927
 SCF Done:  E(RmPW1PW91) =  -468.281605276     A.U. after   12 cycles
             Convg  =    0.8180D-08             -V/T =  2.0099
 Range of M.O.s used for correlation:     1   309
 NBasis=   309 NAE=    44 NBE=    44 NFC=     0 NFV=     0
 NROrb=    309 NOA=    44 NOB=    44 NVA=   265 NVB=   265

 **** Warning!!: The largest alpha MO coefficient is  0.93169040D+02

 NEqPCM:  Using equilibrium solvation (IEInf=0, Eps=   2.2706, EpsInf=   2.2533)
          Differentiating once with respect to magnetic field using GIAOs.
          Electric field/nuclear overlap derivatives assumed to be zero.
 FoFCou: FMM=F IPFlag=           0 FMFlag=    10101102 FMFlg1=           0
         NFxFlg=    40000000 DoJE=F BraDBF=F KetDBF=T FulRan=T
         Omega=  0.000000  0.000000  1.000000  0.000000  0.000000 ICntrl=    6100 IOpCl=  0
         NMat0=    1 NMatS0=    1 NMatT0=    0 NMatD0=    1 NMtDS0=    0 NMtDT0=    0
         I1Cent=           7 NGrid=        1935.
 Symmetry not used in FoFCou.
          There are     3 degrees of freedom in the 1st order CPHF.  IDoFFX=0.
      3 vectors produced by pass  0 Test12= 3.89D-13 3.33D-08 XBig12= 3.01D+01 8.56D-01.
 AX will form     3 AO Fock derivatives at one time.
      3 vectors produced by pass  1 Test12= 3.89D-13 3.33D-08 XBig12= 6.62D-02 5.35D-02.
      3 vectors produced by pass  2 Test12= 3.89D-13 3.33D-08 XBig12= 2.11D-04 3.32D-03.
      3 vectors produced by pass  3 Test12= 3.89D-13 3.33D-08 XBig12= 8.45D-07 1.58D-04.
      3 vectors produced by pass  4 Test12= 3.89D-13 3.33D-08 XBig12= 2.02D-09 6.08D-06.
      3 vectors produced by pass  5 Test12= 3.89D-13 3.33D-08 XBig12= 4.23D-12 2.84D-07.
 Inverted reduced A of dimension    18 with in-core refinement.
 Calculating GIAO nuclear magnetic shielding tensors.
 SCF GIAO Magnetic shielding tensor (ppm):
      1  C    Isotropic =   166.9155   Anisotropy =    14.5032
   XX=   166.4067   YX=    -3.3113   ZX=     5.2356
   XY=    -4.2298   YY=   166.2333   ZY=    -2.9601
   XZ=    11.2153   YZ=     0.9589   ZZ=   168.1065
   Eigenvalues:   158.3617   165.8005   176.5843
      2  C    Isotropic =   125.7685   Anisotropy =    51.7346
   XX=   121.8764   YX=   -11.5919   ZX=   -13.1685
   XY=   -13.9914   YY=   120.5057   ZY=    24.3351
   XZ=   -13.3760   YZ=    21.0860   ZZ=   134.9232
   Eigenvalues:   103.3547   113.6925   160.2582
      3  C    Isotropic =   172.0680   Anisotropy =    19.6125
   XX=   180.4916   YX=     5.7550   ZX=     5.0930
   XY=     9.5035   YY=   168.6490   ZY=    -0.2414
   XZ=     3.0041   YZ=     2.1837   ZZ=   167.0634
   Eigenvalues:   164.4490   166.6119   185.1429
      4  C    Isotropic =   148.7577   Anisotropy =    26.7212
   XX=   152.3644   YX=    -8.8817   ZX=    -7.7677
   XY=    -9.9839   YY=   143.9653   ZY=    16.0754
   XZ=    -1.7040   YZ=     9.0028   ZZ=   149.9433
   Eigenvalues:   132.8278   146.8733   166.5718
      5  C    Isotropic =   165.1655   Anisotropy =    25.0613
   XX=   168.6397   YX=    -5.1789   ZX=    12.2799
   XY=    -9.7055   YY=   163.5620   ZY=    -7.0781
   XZ=     7.6830   YZ=    -6.6816   ZZ=   163.2949
   Eigenvalues:   155.3756   158.2480   181.8730
      6  C    Isotropic =   156.0487   Anisotropy =    26.8566
   XX=   160.0411   YX=    17.2582   ZX=     5.8260
   XY=     9.3857   YY=   160.7721   ZY=     4.5077
   XZ=    -5.3627   YZ=     1.7675   ZZ=   147.3328
   Eigenvalues:   145.0827   149.1102   173.9531
      7  C    Isotropic =   172.6561   Anisotropy =    38.4804
   XX=   182.3106   YX=    10.1599   ZX=    13.5513
   XY=    13.2054   YY=   167.0958   ZY=     5.5428
   XZ=    19.0473   YZ=     5.1856   ZZ=   168.5619
   Eigenvalues:   157.0382   162.6204   198.3097
      8  O    Isotropic =   275.5779   Anisotropy =    92.1295
   XX=   278.2875   YX=   -49.5729   ZX=    22.9006
   XY=   -48.8337   YY=   293.1399   ZY=    22.3632
   XZ=    38.0727   YZ=     2.4564   ZZ=   255.3063
   Eigenvalues:   212.6427   277.0935   336.9975
      9  C    Isotropic =   166.6865   Anisotropy =    13.4867
   XX=   170.2852   YX=    -7.6347   ZX=    -4.3128
   XY=    -5.1126   YY=   165.8215   ZY=    -2.3431
   XZ=    -6.6879   YZ=    -3.1221   ZZ=   163.9528
   Eigenvalues:   156.8712   167.5107   175.6777
     10  C    Isotropic =   174.4337   Anisotropy =    30.1502
   XX=   172.4821   YX=   -15.9723   ZX=     5.2847
   XY=   -10.2431   YY=   180.7095   ZY=    -8.9673
   XZ=     1.6485   YZ=   -10.9171   ZZ=   170.1096
   Eigenvalues:   161.1263   167.6410   194.5339
     11  C    Isotropic =   173.9138   Anisotropy =    34.2328
   XX=   174.9671   YX=    15.8317   ZX=   -12.0464
   XY=    11.3506   YY=   178.9185   ZY=   -10.2447
   XZ=    -9.9807   YZ=    -5.4984   ZZ=   167.8557
   Eigenvalues:   159.5401   165.4655   196.7357
     12  H    Isotropic =    29.5736   Anisotropy =     6.2760
   XX=    31.4726   YX=    -0.6738   ZX=    -2.6000
   XY=    -0.2685   YY=    28.1622   ZY=     3.1125
   XZ=    -2.0599   YZ=     3.0325   ZZ=    29.0861
   Eigenvalues:    25.2727    29.6905    33.7576
     13  H    Isotropic =    27.4253   Anisotropy =     6.3643
   XX=    28.4224   YX=     1.0759   ZX=    -3.4577
   XY=    -0.1817   YY=    27.8631   ZY=    -0.5450
   XZ=    -4.4130   YZ=    -2.0549   ZZ=    25.9906
   Eigenvalues:    22.9593    27.6485    31.6682
     14  H    Isotropic =    29.5088   Anisotropy =     7.8838
   XX=    26.7508   YX=     0.2279   ZX=    -1.7227
   XY=    -0.0495   YY=    27.8358   ZY=     1.0348
   XZ=    -2.5119   YZ=     1.7251   ZZ=    33.9397
   Eigenvalues:    26.0465    27.7151    34.7647
     15  H    Isotropic =    30.0292   Anisotropy =     8.3356
   XX=    31.3178   YX=    -2.3337   ZX=     1.7123
   XY=    -2.5485   YY=    28.6853   ZY=    -3.8538
   XZ=     1.5473   YZ=    -4.6475   ZZ=    30.0845
   Eigenvalues:    24.9577    29.5437    35.5862
     16  H    Isotropic =    30.3398   Anisotropy =     5.8881
   XX=    31.6774   YX=     1.8427   ZX=     0.8937
   XY=     2.0833   YY=    29.5929   ZY=     2.3443
   XZ=     1.4391   YZ=     3.0141   ZZ=    29.7490
   Eigenvalues:    26.8994    29.8548    34.2652
     17  H    Isotropic =    30.3019   Anisotropy =     9.6680
   XX=    30.2124   YX=     3.3313   ZX=    -0.5892
   XY=     4.0389   YY=    31.4567   ZY=    -4.6141
   XZ=    -0.5655   YZ=    -4.5253   ZZ=    29.2365
   Eigenvalues:    24.8708    29.2876    36.7472
     18  H    Isotropic =    30.5170   Anisotropy =     4.9962
   XX=    31.6445   YX=    -0.1544   ZX=     0.4047
   XY=    -0.6463   YY=    32.1859   ZY=     3.4140
   XZ=     0.0651   YZ=     2.8995   ZZ=    27.7206
   Eigenvalues:    26.0591    31.6441    33.8478
     19  H    Isotropic =    30.2764   Anisotropy =     8.1296
   XX=    29.6822   YX=    -1.4993   ZX=     2.3617
   XY=    -1.1128   YY=    32.4678   ZY=    -3.5857
   XZ=     3.3197   YZ=    -3.3565   ZZ=    28.6792
   Eigenvalues:    25.6569    29.4762    35.6962
     20  H    Isotropic =    30.1997   Anisotropy =     4.7559
   XX=    30.8071   YX=     0.2021   ZX=     0.1394
   XY=     0.0142   YY=    26.5395   ZY=     0.7958
   XZ=    -0.2770   YZ=     0.9900   ZZ=    33.2524
   Eigenvalues:    26.4197    30.8090    33.3703
     21  H    Isotropic =    30.7147   Anisotropy =    10.7643
   XX=    34.6543   YX=    -2.7825   ZX=     4.4750
   XY=    -1.8245   YY=    28.9820   ZY=    -0.9228
   XZ=     4.5813   YZ=    -2.0460   ZZ=    28.5079
   Eigenvalues:    26.0841    28.1692    37.8909
     22  H    Isotropic =    31.0043   Anisotropy =     8.0187
   XX=    29.7567   YX=     0.9724   ZX=     1.2795
   XY=     0.3853   YY=    30.0900   ZY=     4.2866
   XZ=     0.4960   YZ=     4.2412   ZZ=    33.1662
   Eigenvalues:    27.0945    29.5684    36.3501
     23  H    Isotropic =    30.5878   Anisotropy =    10.7039
   XX=    33.8350   YX=     5.3699   ZX=    -1.2380
   XY=     5.0047   YY=    30.1449   ZY=    -2.0992
   XZ=    -0.3107   YZ=    -0.9161   ZZ=    27.7837
   Eigenvalues:    26.0759    27.9638    37.7238
     24  H    Isotropic =    31.0145   Anisotropy =    18.2654
   XX=    30.1535   YX=    -9.7249   ZX=     3.1211
   XY=    -9.4757   YY=    35.8608   ZY=    -0.5839
   XZ=     1.5664   YZ=    -0.0230   ZZ=    27.0292
   Eigenvalues:    22.3574    27.4947    43.1915
     25  H    Isotropic =    29.8677   Anisotropy =     5.6659
   XX=    32.1642   YX=     0.7322   ZX=     1.4705
   XY=     1.0507   YY=    27.2643   ZY=     1.8605
   XZ=     1.9066   YZ=     2.1158   ZZ=    30.1744
   Eigenvalues:    26.2554    29.7026    33.6449
     26  H    Isotropic =    30.9823   Anisotropy =     8.9512
   XX=    32.6968   YX=    -1.0863   ZX=     4.3092
   XY=    -1.6013   YY=    28.0332   ZY=    -0.9567
   XZ=     4.2146   YZ=    -0.3107   ZZ=    32.2170
   Eigenvalues:    27.5042    28.4931    36.9498
     27  H    Isotropic =    30.2258   Anisotropy =     8.2721
   XX=    30.0075   YX=    -0.5038   ZX=    -1.3350
   XY=     0.4910   YY=    34.7113   ZY=    -3.0703
   XZ=    -2.0357   YZ=    -3.1166   ZZ=    25.9586
   Eigenvalues:    24.5038    30.4331    35.7405
     28  H    Isotropic =    30.7834   Anisotropy =    10.3866
   XX=    31.9550   YX=    -4.3849   ZX=    -3.6134
   XY=    -4.9141   YY=    31.3659   ZY=     1.8805
   XZ=    -2.8323   YZ=     1.3387   ZZ=    29.0294
   Eigenvalues:    26.3068    28.3357    37.7078
     29  H    Isotropic =    30.9809   Anisotropy =     8.8054
   XX=    33.4888   YX=     4.0029   ZX=     1.8749
   XY=     4.1550   YY=    30.6326   ZY=     1.7058
   XZ=     0.9220   YZ=     1.0535   ZZ=    28.8213
   Eigenvalues:    27.6111    28.4804    36.8512
     30  H    Isotropic =    30.3479   Anisotropy =     8.7495
   XX=    29.8865   YX=    -0.2634   ZX=    -1.6145
   XY=    -1.6836   YY=    31.7149   ZY=    -5.5311
   XZ=    -1.3591   YZ=    -5.4291   ZZ=    29.4425
   Eigenvalues:    24.4110    30.4518    36.1809
     31  H    Isotropic =    30.7216   Anisotropy =    10.6009
   XX=    32.0437   YX=    -1.2448   ZX=    -5.6780
   XY=    -0.0120   YY=    28.2251   ZY=     0.0182
   XZ=    -5.8509   YZ=     0.7553   ZZ=    31.8960
   Eigenvalues:    26.1910    28.1849    37.7888
 End of Minotr Frequency-dependent properties file   721 does not exist.
 End of Minotr Frequency-dependent properties file   722 does not exist.

 **********************************************************************

            Population analysis using the SCF density.

 **********************************************************************

 Orbital symmetries:
       Occupied  (A) (A) (A) (A) (A) (A) (A) (A) (A) (A) (A) (A)
                 (A) (A) (A) (A) (A) (A) (A) (A) (A) (A) (A) (A)
                 (A) (A) (A) (A) (A) (A) (A) (A) (A) (A) (A) (A)
                 (A) (A) (A) (A) (A) (A) (A) (A)
       Virtual   (A) (A) (A) (A) (A) (A) (A) (A) (A) (A) (A) (A)
                 (A) (A) (A) (A) (A) (A) (A) (A) (A) (A) (A) (A)
                 (A) (A) (A) (A) (A) (A) (A) (A) (A) (A) (A) (A)
                 (A) (A) (A) (A) (A) (A) (A) (A) (A) (A) (A) (A)
                 (A) (A) (A) (A) (A) (A) (A) (A) (A) (A) (A) (A)
                 (A) (A) (A) (A) (A) (A) (A) (A) (A) (A) (A) (A)
                 (A) (A) (A) (A) (A) (A) (A) (A) (A) (A) (A) (A)
                 (A) (A) (A) (A) (A) (A) (A) (A) (A) (A) (A) (A)
                 (A) (A) (A) (A) (A) (A) (A) (A) (A) (A) (A) (A)
                 (A) (A) (A) (A) (A) (A) (A) (A) (A) (A) (A) (A)
                 (A) (A) (A) (A) (A) (A) (A) (A) (A) (A) (A) (A)
                 (A) (A) (A) (A) (A) (A) (A) (A) (A) (A) (A) (A)
                 (A) (A) (A) (A) (A) (A) (A) (A) (A) (A) (A) (A)
                 (A) (A) (A) (A) (A) (A) (A) (A) (A) (A) (A) (A)
                 (A) (A) (A) (A) (A) (A) (A) (A) (A) (A) (A) (A)
                 (A) (A) (A) (A) (A) (A) (A) (A) (A) (A) (A) (A)
                 (A) (A) (A) (A) (A) (A) (A) (A) (A) (A) (A) (A)
                 (A) (A) (A) (A) (A) (A) (A) (A) (A) (A) (A) (A)
                 (A) (A) (A) (A) (A) (A) (A) (A) (A) (A) (A) (A)
                 (A) (A) (A) (A) (A) (A) (A) (A) (A) (A) (A) (A)
                 (A) (A) (A) (A) (A) (A) (A) (A) (A) (A) (A) (A)
                 (A) (A) (A) (A) (A) (A) (A) (A) (A) (A) (A) (A)
                 (A)
 The electronic state is 1-A.
 Alpha  occ. eigenvalues --  -19.24388 -10.29401 -10.25271 -10.24687 -10.24548
 Alpha  occ. eigenvalues --  -10.24201 -10.23620 -10.23321 -10.23292 -10.23249
 Alpha  occ. eigenvalues --  -10.23248  -1.04897  -0.85839  -0.81992  -0.76530
 Alpha  occ. eigenvalues --   -0.75419  -0.70094  -0.69527  -0.62800  -0.61805
 Alpha  occ. eigenvalues --   -0.59204  -0.54069  -0.51399  -0.49607  -0.47062
 Alpha  occ. eigenvalues --   -0.46217  -0.44964  -0.43647  -0.43102  -0.41238
 Alpha  occ. eigenvalues --   -0.40029  -0.39523  -0.39078  -0.37744  -0.37505
 Alpha  occ. eigenvalues --   -0.36601  -0.35779  -0.34227  -0.34071  -0.32654
 Alpha  occ. eigenvalues --   -0.31953  -0.30812  -0.29802  -0.27857
 Alpha virt. eigenvalues --    0.00500   0.01816   0.02091   0.02417   0.03897
 Alpha virt. eigenvalues --    0.04320   0.04694   0.05045   0.05557   0.06858
 Alpha virt. eigenvalues --    0.07264   0.07321   0.07975   0.08176   0.09505
 Alpha virt. eigenvalues --    0.09731   0.10093   0.10834   0.11130   0.11455
 Alpha virt. eigenvalues --    0.11877   0.12692   0.13493   0.14167   0.14984
 Alpha virt. eigenvalues --    0.15788   0.15920   0.16706   0.16998   0.17645
 Alpha virt. eigenvalues --    0.17941   0.18534   0.18918   0.19491   0.20051
 Alpha virt. eigenvalues --    0.20369   0.20840   0.21004   0.21627   0.22212
 Alpha virt. eigenvalues --    0.22836   0.23094   0.23774   0.24056   0.24845
 Alpha virt. eigenvalues --    0.25070   0.25493   0.25723   0.26709   0.27319
 Alpha virt. eigenvalues --    0.28476   0.28600   0.29483   0.29671   0.30748
 Alpha virt. eigenvalues --    0.31015   0.31491   0.32064   0.32893   0.33078
 Alpha virt. eigenvalues --    0.33918   0.34806   0.35416   0.36694   0.37928
 Alpha virt. eigenvalues --    0.38227   0.39030   0.39097   0.40486   0.41540
 Alpha virt. eigenvalues --    0.42981   0.43734   0.45186   0.48903   0.54297
 Alpha virt. eigenvalues --    0.63463   0.65000   0.65799   0.66367   0.67164
 Alpha virt. eigenvalues --    0.67589   0.69567   0.70100   0.71136   0.71574
 Alpha virt. eigenvalues --    0.73872   0.74170   0.75105   0.75372   0.77359
 Alpha virt. eigenvalues --    0.78543   0.80816   0.81411   0.83412   0.84385
 Alpha virt. eigenvalues --    0.86191   0.88299   0.89839   0.89977   0.92147
 Alpha virt. eigenvalues --    0.93664   0.96696   0.99575   1.00341   1.00741
 Alpha virt. eigenvalues --    1.01043   1.01579   1.02547   1.04419   1.04545
 Alpha virt. eigenvalues --    1.06418   1.08719   1.09248   1.10041   1.10532
 Alpha virt. eigenvalues --    1.12028   1.13272   1.15442   1.16214   1.16812
 Alpha virt. eigenvalues --    1.17625   1.18924   1.19596   1.19825   1.21570
 Alpha virt. eigenvalues --    1.24574   1.26246   1.27655   1.27829   1.31753
 Alpha virt. eigenvalues --    1.36309   1.39205   1.39926   1.44051   1.45364
 Alpha virt. eigenvalues --    1.46791   1.52162   1.52442   1.56027   1.57951
 Alpha virt. eigenvalues --    1.59144   1.61037   1.64004   1.65681   1.66972
 Alpha virt. eigenvalues --    1.68995   1.70478   1.72215   1.74628   1.80920
 Alpha virt. eigenvalues --    1.82755   1.83729   1.85157   1.88005   1.89431
 Alpha virt. eigenvalues --    1.89757   1.90850   1.91832   1.92001   1.95651
 Alpha virt. eigenvalues --    1.96274   1.97284   2.01552   2.02000   2.02183
 Alpha virt. eigenvalues --    2.05300   2.06127   2.06460   2.07377   2.08596
 Alpha virt. eigenvalues --    2.09686   2.12644   2.13025   2.14087   2.15250
 Alpha virt. eigenvalues --    2.16383   2.17353   2.18073   2.18478   2.20430
 Alpha virt. eigenvalues --    2.21571   2.22049   2.24846   2.26642   2.28658
 Alpha virt. eigenvalues --    2.32236   2.33284   2.34256   2.35780   2.36842
 Alpha virt. eigenvalues --    2.38995   2.40499   2.41331   2.43479   2.47346
 Alpha virt. eigenvalues --    2.47397   2.49712   2.52594   2.55189   2.57334
 Alpha virt. eigenvalues --    2.59950   2.60937   2.61618   2.64430   2.66471
 Alpha virt. eigenvalues --    2.67462   2.67986   2.70075   2.71761   2.73453
 Alpha virt. eigenvalues --    2.74672   2.76681   2.76934   2.77650   2.79130
 Alpha virt. eigenvalues --    2.79365   2.82276   2.83224   2.85805   2.86332
 Alpha virt. eigenvalues --    2.87616   2.88585   2.90517   2.90984   2.92747
 Alpha virt. eigenvalues --    2.92952   2.93818   2.94947   2.97333   2.99117
 Alpha virt. eigenvalues --    3.00279   3.03032   3.05666   3.14269   3.28929
 Alpha virt. eigenvalues --    3.29714   3.30501   3.36042   3.38133   3.39025
 Alpha virt. eigenvalues --    3.41034   3.43119   3.48055   3.48965   3.50321
 Alpha virt. eigenvalues --    3.51082   3.53233   3.54372   3.55718   3.56014
 Alpha virt. eigenvalues --    3.58841   3.60102   3.61786   3.64208   4.36177
 Alpha virt. eigenvalues --    4.43055   4.44762   4.56863   4.58655   4.61955
 Alpha virt. eigenvalues --    4.63454   4.74675   4.82684   4.90032   4.94158
          Condensed to atoms (all electrons):
              1          2          3          4          5          6
     1  C    6.976130   0.263929   0.054676  -0.082994  -0.175289  -0.377090
     2  C    0.263929   7.491142   0.404686  -1.113082   0.048369  -0.880827
     3  C    0.054676   0.404686   6.107772  -0.684985   0.276330  -0.215303
     4  C   -0.082994  -1.113082  -0.684985   8.219336  -0.390584   0.119249
     5  C   -0.175289   0.048369   0.276330  -0.390584   6.011292  -0.253458
     6  C   -0.377090  -0.880827  -0.215303   0.119249  -0.253458   6.722111
     7  C   -0.679438  -0.428704  -0.158397   0.097207   0.049560   0.406917
     8  O    0.007314   0.007671  -0.087139   0.048059  -0.064442   0.064216
     9  C    0.024988   0.124863   0.298954  -0.946903   0.034906   0.032254
    10  C    0.000853  -0.098709  -0.089767   0.342834  -0.005747  -0.027706
    11  C    0.003045  -0.041060  -0.047597   0.107086  -0.026795   0.027165
    12  H    0.301667  -0.058849  -0.033031   0.023049   0.010424   0.016437
    13  H    0.020560   0.091105  -0.025191   0.105090  -0.017385   0.097019
    14  H    0.004753  -0.052422   0.426366  -0.023947  -0.052612  -0.001784
    15  H    0.021687   0.007555   0.359733  -0.008084  -0.024594  -0.007110
    16  H   -0.000492   0.086048   0.018831   0.152871   0.022854   0.014074
    17  H   -0.010751  -0.004798  -0.017042   0.051027   0.306381   0.033338
    18  H   -0.088810  -0.038716  -0.082439   0.048791   0.450364   0.014788
    19  H   -0.023042   0.043163  -0.003259   0.016463   0.041578   0.275550
    20  H   -0.092709  -0.106577  -0.018139   0.067028   0.008600   0.450136
    21  H   -0.119463  -0.000323  -0.006149   0.003762   0.025360   0.005326
    22  H   -0.110740  -0.010311  -0.006769   0.007222   0.010603   0.009958
    23  H   -0.131401  -0.011888  -0.001571   0.005220   0.003993   0.033974
    24  H   -0.017114   0.115351   0.001878   0.006220   0.018493  -0.087324
    25  H    0.007992   0.028101  -0.031359  -0.023822   0.007734  -0.007136
    26  H    0.001146   0.006245  -0.006399   0.000368   0.000105  -0.001445
    27  H   -0.002237  -0.000550  -0.017550  -0.004769   0.011129   0.001347
    28  H    0.000221  -0.002326  -0.005517   0.046781  -0.001568   0.000582
    29  H    0.000895   0.010715  -0.001774  -0.016810   0.000133   0.000113
    30  H   -0.000042  -0.031455   0.008785   0.005624  -0.001176   0.012530
    31  H    0.000109   0.004674  -0.005286   0.035803  -0.000018  -0.001896
              7          8          9         10         11         12
     1  C   -0.679438   0.007314   0.024988   0.000853   0.003045   0.301667
     2  C   -0.428704   0.007671   0.124863  -0.098709  -0.041060  -0.058849
     3  C   -0.158397  -0.087139   0.298954  -0.089767  -0.047597  -0.033031
     4  C    0.097207   0.048059  -0.946903   0.342834   0.107086   0.023049
     5  C    0.049560  -0.064442   0.034906  -0.005747  -0.026795   0.010424
     6  C    0.406917   0.064216   0.032254  -0.027706   0.027165   0.016437
     7  C    6.000697   0.048435   0.018252  -0.005827   0.005449   0.005760
     8  O    0.048435   8.311471   0.023632  -0.002965   0.004146   0.008645
     9  C    0.018252   0.023632   6.876353  -0.253725  -0.152923  -0.001013
    10  C   -0.005827  -0.002965  -0.253725   5.592670  -0.087042   0.000154
    11  C    0.005449   0.004146  -0.152923  -0.087042   5.535966   0.000019
    12  H    0.005760   0.008645  -0.001013   0.000154   0.000019   0.557989
    13  H    0.012309  -0.039771  -0.001556   0.005601   0.001463  -0.000064
    14  H    0.004656   0.003732   0.016447   0.002749  -0.001825   0.003057
    15  H   -0.000847  -0.000369  -0.046223   0.017686   0.001271   0.000019
    16  H    0.000831  -0.003898   0.041573  -0.038550  -0.011149  -0.000054
    17  H   -0.026689   0.000518  -0.005201   0.001710   0.000585  -0.004802
    18  H    0.004511   0.000399  -0.004165  -0.001454   0.002852   0.005192
    19  H   -0.017041  -0.015867   0.001467   0.000798  -0.001654  -0.004194
    20  H    0.006904   0.009811  -0.022048   0.004913   0.000210   0.005003
    21  H    0.450817  -0.000176  -0.000601   0.000162  -0.000147  -0.003681
    22  H    0.449593   0.000102  -0.001391   0.000366   0.000089   0.004713
    23  H    0.460372   0.000146  -0.000236  -0.000085   0.000100  -0.003610
    24  H   -0.009454   0.210804  -0.007746   0.000879   0.000815   0.000163
    25  H    0.003379  -0.000586   0.297742  -0.017970   0.004862  -0.000028
    26  H    0.000026  -0.000059  -0.098320   0.451198  -0.005112   0.000000
    27  H    0.000434  -0.000001  -0.054382   0.432236  -0.004814   0.000001
    28  H   -0.000048   0.000010  -0.127901   0.444647   0.002837   0.000000
    29  H    0.000066  -0.000122  -0.094215  -0.008973   0.459141   0.000000
    30  H    0.000195   0.000309  -0.066030   0.000190   0.429672   0.000001
    31  H    0.000070  -0.000033  -0.125348  -0.004381   0.455261   0.000000
             13         14         15         16         17         18
     1  C    0.020560   0.004753   0.021687  -0.000492  -0.010751  -0.088810
     2  C    0.091105  -0.052422   0.007555   0.086048  -0.004798  -0.038716
     3  C   -0.025191   0.426366   0.359733   0.018831  -0.017042  -0.082439
     4  C    0.105090  -0.023947  -0.008084   0.152871   0.051027   0.048791
     5  C   -0.017385  -0.052612  -0.024594   0.022854   0.306381   0.450364
     6  C    0.097019  -0.001784  -0.007110   0.014074   0.033338   0.014788
     7  C    0.012309   0.004656  -0.000847   0.000831  -0.026689   0.004511
     8  O   -0.039771   0.003732  -0.000369  -0.003898   0.000518   0.000399
     9  C   -0.001556   0.016447  -0.046223   0.041573  -0.005201  -0.004165
    10  C    0.005601   0.002749   0.017686  -0.038550   0.001710  -0.001454
    11  C    0.001463  -0.001825   0.001271  -0.011149   0.000585   0.002852
    12  H   -0.000064   0.003057   0.000019  -0.000054  -0.004802   0.005192
    13  H    0.643018  -0.000061  -0.000093  -0.004911   0.000014  -0.000048
    14  H   -0.000061   0.521561  -0.028208  -0.005063  -0.003941   0.004526
    15  H   -0.000093  -0.028208   0.565001  -0.002206  -0.002915  -0.003382
    16  H   -0.004911  -0.005063  -0.002206   0.556433  -0.000112  -0.000091
    17  H    0.000014  -0.003941  -0.002915  -0.000112   0.554650  -0.030201
    18  H   -0.000048   0.004526  -0.003382  -0.000091  -0.030201   0.556411
    19  H   -0.005767  -0.000033   0.000010  -0.000129  -0.000135  -0.000043
    20  H   -0.001703   0.000067  -0.000014  -0.000069  -0.000035   0.002949
    21  H   -0.000002   0.000000   0.000002   0.000000   0.000009  -0.000010
    22  H   -0.000003   0.000001   0.000001   0.000000  -0.000150   0.003380
    23  H    0.000002  -0.000003  -0.000003   0.000000   0.002790  -0.000266
    24  H   -0.006100  -0.000280   0.000008   0.000059  -0.000007   0.000001
    25  H   -0.000806  -0.000095   0.000117   0.005002   0.000006  -0.001315
    26  H   -0.000009  -0.000042   0.000158   0.003052   0.000000  -0.000009
    27  H    0.000001   0.000118  -0.000439  -0.000045  -0.000014   0.000853
    28  H   -0.000004  -0.000004   0.000105  -0.000064   0.000000  -0.000025
    29  H    0.000113  -0.000005   0.000006   0.003700   0.000000  -0.000002
    30  H    0.002522  -0.000001   0.000000  -0.000215   0.000000   0.000004
    31  H   -0.000025   0.000002  -0.000004   0.000003   0.000000   0.000002
             19         20         21         22         23         24
     1  C   -0.023042  -0.092709  -0.119463  -0.110740  -0.131401  -0.017114
     2  C    0.043163  -0.106577  -0.000323  -0.010311  -0.011888   0.115351
     3  C   -0.003259  -0.018139  -0.006149  -0.006769  -0.001571   0.001878
     4  C    0.016463   0.067028   0.003762   0.007222   0.005220   0.006220
     5  C    0.041578   0.008600   0.025360   0.010603   0.003993   0.018493
     6  C    0.275550   0.450136   0.005326   0.009958   0.033974  -0.087324
     7  C   -0.017041   0.006904   0.450817   0.449593   0.460372  -0.009454
     8  O   -0.015867   0.009811  -0.000176   0.000102   0.000146   0.210804
     9  C    0.001467  -0.022048  -0.000601  -0.001391  -0.000236  -0.007746
    10  C    0.000798   0.004913   0.000162   0.000366  -0.000085   0.000879
    11  C   -0.001654   0.000210  -0.000147   0.000089   0.000100   0.000815
    12  H   -0.004194   0.005003  -0.003681   0.004713  -0.003610   0.000163
    13  H   -0.005767  -0.001703  -0.000002  -0.000003   0.000002  -0.006100
    14  H   -0.000033   0.000067   0.000000   0.000001  -0.000003  -0.000280
    15  H    0.000010  -0.000014   0.000002   0.000001  -0.000003   0.000008
    16  H   -0.000129  -0.000069   0.000000   0.000000   0.000000   0.000059
    17  H   -0.000135  -0.000035   0.000009  -0.000150   0.002790  -0.000007
    18  H   -0.000043   0.002949  -0.000010   0.003380  -0.000266   0.000001
    19  H    0.560931  -0.028105   0.002611  -0.000102  -0.000025   0.004926
    20  H   -0.028105   0.545543  -0.000303   0.003352   0.000018   0.000108
    21  H    0.002611  -0.000303   0.536316  -0.028577  -0.025392   0.000010
    22  H   -0.000102   0.003352  -0.028577   0.535931  -0.027790   0.000000
    23  H   -0.000025   0.000018  -0.025392  -0.027790   0.532400   0.000000
    24  H    0.004926   0.000108   0.000010   0.000000   0.000000   0.409842
    25  H   -0.000044   0.000011   0.000000  -0.000023  -0.000001   0.000001
    26  H    0.000000  -0.000001   0.000000   0.000000   0.000000   0.000000
    27  H    0.000000   0.000010   0.000000   0.000001   0.000000   0.000000
    28  H    0.000000   0.000001   0.000000   0.000000   0.000000   0.000000
    29  H    0.000000  -0.000008   0.000000   0.000000   0.000000  -0.000001
    30  H   -0.000004   0.000335   0.000000   0.000000   0.000000   0.000023
    31  H    0.000000  -0.000012   0.000000   0.000000   0.000000   0.000000
             25         26         27         28         29         30
     1  C    0.007992   0.001146  -0.002237   0.000221   0.000895  -0.000042
     2  C    0.028101   0.006245  -0.000550  -0.002326   0.010715  -0.031455
     3  C   -0.031359  -0.006399  -0.017550  -0.005517  -0.001774   0.008785
     4  C   -0.023822   0.000368  -0.004769   0.046781  -0.016810   0.005624
     5  C    0.007734   0.000105   0.011129  -0.001568   0.000133  -0.001176
     6  C   -0.007136  -0.001445   0.001347   0.000582   0.000113   0.012530
     7  C    0.003379   0.000026   0.000434  -0.000048   0.000066   0.000195
     8  O   -0.000586  -0.000059  -0.000001   0.000010  -0.000122   0.000309
     9  C    0.297742  -0.098320  -0.054382  -0.127901  -0.094215  -0.066030
    10  C   -0.017970   0.451198   0.432236   0.444647  -0.008973   0.000190
    11  C    0.004862  -0.005112  -0.004814   0.002837   0.459141   0.429672
    12  H   -0.000028   0.000000   0.000001   0.000000   0.000000   0.000001
    13  H   -0.000806  -0.000009   0.000001  -0.000004   0.000113   0.002522
    14  H   -0.000095  -0.000042   0.000118  -0.000004  -0.000005  -0.000001
    15  H    0.000117   0.000158  -0.000439   0.000105   0.000006   0.000000
    16  H    0.005002   0.003052  -0.000045  -0.000064   0.003700  -0.000215
    17  H    0.000006   0.000000  -0.000014   0.000000   0.000000   0.000000
    18  H   -0.001315  -0.000009   0.000853  -0.000025  -0.000002   0.000004
    19  H   -0.000044   0.000000   0.000000   0.000000   0.000000  -0.000004
    20  H    0.000011  -0.000001   0.000010   0.000001  -0.000008   0.000335
    21  H    0.000000   0.000000   0.000000   0.000000   0.000000   0.000000
    22  H   -0.000023   0.000000   0.000001   0.000000   0.000000   0.000000
    23  H   -0.000001   0.000000   0.000000   0.000000   0.000000   0.000000
    24  H    0.000001   0.000000   0.000000   0.000000  -0.000001   0.000023
    25  H    0.580127   0.004987  -0.004443  -0.002810   0.004918  -0.004203
    26  H    0.004987   0.527490  -0.028022  -0.027630   0.002818  -0.000038
    27  H   -0.004443  -0.028022   0.534320  -0.026181  -0.000012  -0.000140
    28  H   -0.002810  -0.027630  -0.026181   0.533932  -0.000144   0.000131
    29  H    0.004918   0.002818  -0.000012  -0.000144   0.526184  -0.028617
    30  H   -0.004203  -0.000038  -0.000140   0.000131  -0.028617   0.544291
    31  H   -0.003265  -0.000099   0.000112   0.003038  -0.027617  -0.026393
             31
     1  C    0.000109
     2  C    0.004674
     3  C   -0.005286
     4  C    0.035803
     5  C   -0.000018
     6  C   -0.001896
     7  C    0.000070
     8  O   -0.000033
     9  C   -0.125348
    10  C   -0.004381
    11  C    0.455261
    12  H    0.000000
    13  H   -0.000025
    14  H    0.000002
    15  H   -0.000004
    16  H    0.000003
    17  H    0.000000
    18  H    0.000002
    19  H    0.000000
    20  H   -0.000012
    21  H    0.000000
    22  H    0.000000
    23  H    0.000000
    24  H    0.000000
    25  H   -0.003265
    26  H   -0.000099
    27  H    0.000112
    28  H    0.003038
    29  H   -0.027617
    30  H   -0.026393
    31  H    0.531403
 Mulliken atomic charges:
              1
     1  C    0.221645
     2  C    0.146978
     3  C   -0.413347
     4  C   -0.213110
     5  C   -0.324540
     6  C   -0.476003
     7  C   -0.699994
     8  O   -0.533994
     9  C    0.218496
    10  C   -0.656746
    11  C   -0.661916
    12  H    0.167033
    13  H    0.124683
    14  H    0.182292
    15  H    0.151132
    16  H    0.161716
    17  H    0.155765
    18  H    0.155953
    19  H    0.151947
    20  H    0.164723
    21  H    0.160450
    22  H    0.160544
    23  H    0.163253
    24  H    0.358448
    25  H    0.152927
    26  H    0.169593
    27  H    0.163036
    28  H    0.161936
    29  H    0.169497
    30  H    0.153704
    31  H    0.163900
 Sum of Mulliken atomic charges =   0.00000
 Mulliken charges with hydrogens summed into heavy atoms:
              1
     1  C    0.388678
     2  C    0.271662
     3  C   -0.079924
     4  C   -0.051394
     5  C   -0.012822
     6  C   -0.159333
     7  C   -0.215746
     8  O   -0.175546
     9  C    0.371423
    10  C   -0.162182
    11  C   -0.174815
 Sum of Mulliken charges with hydrogens summed into heavy atoms =   0.00000
 Electronic spatial extent (au):  <R**2>=           2055.0930
 Charge=              0.0000 electrons
 Dipole moment (field-independent basis, Debye):
    X=             -0.4806    Y=              0.0795    Z=             -1.6052  Tot=              1.6774
 Quadrupole moment (field-independent basis, Debye-Ang):
   XX=            -70.6221   YY=            -70.2760   ZZ=            -74.5827
   XY=             -2.9940   XZ=             -0.0079   YZ=             -3.4227
 Traceless Quadrupole moment (field-independent basis, Debye-Ang):
   XX=              1.2048   YY=              1.5510   ZZ=             -2.7558
   XY=             -2.9940   XZ=             -0.0079   YZ=             -3.4227
 Octapole moment (field-independent basis, Debye-Ang**2):
  XXX=             -5.5548  YYY=             21.8434  ZZZ=              0.5744  XYY=            -12.1323
  XXY=              9.5882  XXZ=              4.3196  XZZ=              1.4198  YZZ=             -3.3212
  YYZ=             -4.9844  XYZ=              2.5517
 Hexadecapole moment (field-independent basis, Debye-Ang**3):
 XXXX=          -1708.7126 YYYY=           -658.1837 ZZZZ=           -455.0060 XXXY=            -21.6208
 XXXZ=            -11.3356 YYYX=            -42.0914 YYYZ=             -4.5331 ZZZX=             -4.6395
 ZZZY=              1.9751 XXYY=           -384.6385 XXZZ=           -355.9128 YYZZ=           -201.3326
 XXYZ=              5.8371 YYXZ=             -7.2938 ZZXY=             -3.2291
 N-N= 6.965224316051D+02 E-N=-2.478481899955D+03  KE= 4.636972898963D+02
 1\1\GINC-COMPUTE-10-2\SP\RmPW1PW91\6-31+G(d,p)\C10H20O1\ASAROTTI.IQUIR
 \19-Sep-2024\0\\# mPW1PW91/6-31+G** nmr scrf=(pcm,solvent=benzene)\\co
 mment\\0,1\C,0,-2.042841,-0.287476,-0.071356\C,0,-0.075773,1.365579,-0
 .050603\C,0,-0.0035,-0.675214,1.40078\C,0,0.859428,0.308094,0.577622\C
 ,0,-1.113793,-1.335271,0.567803\C,0,-1.214702,0.734502,-0.86995\C,0,-3
 .127955,-0.93242,-0.940288\O,0,-0.592458,2.135878,1.045555\C,0,1.79987
 9,-0.368144,-0.463565\C,0,2.61149,-1.522294,0.151844\C,0,2.773146,0.64
 2332,-1.098998\H,0,-2.5346,0.257783,0.747018\H,0,0.502757,2.031839,-0.
 706389\H,0,-0.465878,-0.108428,2.216983\H,0,0.625809,-1.437217,1.87151
 7\H,0,1.506143,0.852689,1.281192\H,0,-1.70249,-2.012474,1.201249\H,0,-
 0.675749,-1.961129,-0.22489\H,0,-1.86881,1.534138,-1.251667\H,0,-0.787
 931,0.249559,-1.760006\H,0,-3.803078,-0.178811,-1.364657\H,0,-2.684704
 ,-1.488927,-1.776737\H,0,-3.73615,-1.636289,-0.359206\H,0,-1.210428,2.
 786762,0.677536\H,0,1.188534,-0.795187,-1.271695\H,0,3.184328,-1.18005
 9,1.023927\H,0,1.979019,-2.355222,0.473743\H,0,3.326981,-1.918391,-0.5
 78388\H,0,3.394186,1.11962,-0.329522\H,0,2.262622,1.436589,-1.652525\H
 ,0,3.44684,0.137997,-1.801652\\Version=AM64L-G09RevC.01\State=1-A\HF=-
 468.2816053\RMSD=8.180e-09\Dipole=-0.1890735,0.0312641,-0.63152\Quadru
 pole=0.8957546,1.1531002,-2.0488548,-2.2259388,-0.0058715,-2.5446866\P
 G=C01 [X(C10H20O1)]\\@


 IT TAKES GREATER CHARACTER TO CARRY OFF GOOD FORTUNE THAN BAD.
                     FRENCH PROVERB.
 Job cpu time:  0 days  0 hours  9 minutes 28.7 seconds.
 File lengths (MBytes):  RWF=    122 Int=      0 D2E=      0 Chk=      7 Scr=      1
 Normal termination of Gaussian 09 at Thu Sep 19 08:33:44 2024.
