 Entering Gaussian System, Link 0=g09
 Input=/home/asarotti.iquir/SCF2/02_Mentol01_OptB_NMR_benzene.gjc
 Output=/home/asarotti.iquir/SCF2/02_Mentol01_OptB_NMR_benzene.log
 Initial command:
 /opt/ohpc/pub/apps/software/Gaussian/09/EM64T.SSE4.2-enabled/g09/l1.exe /local/asarotti.iquir/Gau-3357891.inp -scrdir=/local/asarotti.iquir/
 Entering Link 1 = /opt/ohpc/pub/apps/software/Gaussian/09/EM64T.SSE4.2-enabled/g09/l1.exe PID=   3357892.
  
 Copyright (c) 1988,1990,1992,1993,1995,1998,2003,2009,2011,
            Gaussian, Inc.  All Rights Reserved.
  
 This is part of the Gaussian(R) 09 program.  It is based on
 the Gaussian(R) 03 system (copyright 2003, Gaussian, Inc.),
 the Gaussian(R) 98 system (copyright 1998, Gaussian, Inc.),
 the Gaussian(R) 94 system (copyright 1995, Gaussian, Inc.),
 the Gaussian 92(TM) system (copyright 1992, Gaussian, Inc.),
 the Gaussian 90(TM) system (copyright 1990, Gaussian, Inc.),
 the Gaussian 88(TM) system (copyright 1988, Gaussian, Inc.),
 the Gaussian 86(TM) system (copyright 1986, Carnegie Mellon
 University), and the Gaussian 82(TM) system (copyright 1983,
 Carnegie Mellon University). Gaussian is a federally registered
 trademark of Gaussian, Inc.
  
 This software contains proprietary and confidential information,
 including trade secrets, belonging to Gaussian, Inc.
  
 This software is provided under written license and may be
 used, copied, transmitted, or stored only in accord with that
 written license.
  
 The following legend is applicable only to US Government
 contracts under FAR:
  
                    RESTRICTED RIGHTS LEGEND
  
 Use, reproduction and disclosure by the US Government is
 subject to restrictions as set forth in subparagraphs (a)
 and (c) of the Commercial Computer Software - Restricted
 Rights clause in FAR 52.227-19.
  
 Gaussian, Inc.
 340 Quinnipiac St., Bldg. 40, Wallingford CT 06492
  
  
 ---------------------------------------------------------------
 Warning -- This program may not be used in any manner that
 competes with the business of Gaussian, Inc. or will provide
 assistance to any competitor of Gaussian, Inc.  The licensee
 of this program is prohibited from giving any competitor of
 Gaussian, Inc. access to this program.  By using this program,
 the user acknowledges that Gaussian, Inc. is engaged in the
 business of creating and licensing software in the field of
 computational chemistry and represents and warrants to the
 licensee that it is not a competitor of Gaussian, Inc. and that
 it will not use this program in any manner prohibited above.
 ---------------------------------------------------------------
  

 Cite this work as:
 Gaussian 09, Revision C.01,
 M. J. Frisch, G. W. Trucks, H. B. Schlegel, G. E. Scuseria, 
 M. A. Robb, J. R. Cheeseman, G. Scalmani, V. Barone, B. Mennucci, 
 G. A. Petersson, H. Nakatsuji, M. Caricato, X. Li, H. P. Hratchian, 
 A. F. Izmaylov, J. Bloino, G. Zheng, J. L. Sonnenberg, M. Hada, 
 M. Ehara, K. Toyota, R. Fukuda, J. Hasegawa, M. Ishida, T. Nakajima, 
 Y. Honda, O. Kitao, H. Nakai, T. Vreven, J. A. Montgomery, Jr., 
 J. E. Peralta, F. Ogliaro, M. Bearpark, J. J. Heyd, E. Brothers, 
 K. N. Kudin, V. N. Staroverov, T. Keith, R. Kobayashi, J. Normand, 
 K. Raghavachari, A. Rendell, J. C. Burant, S. S. Iyengar, J. Tomasi, 
 M. Cossi, N. Rega, J. M. Millam, M. Klene, J. E. Knox, J. B. Cross, 
 V. Bakken, C. Adamo, J. Jaramillo, R. Gomperts, R. E. Stratmann, 
 O. Yazyev, A. J. Austin, R. Cammi, C. Pomelli, J. W. Ochterski, 
 R. L. Martin, K. Morokuma, V. G. Zakrzewski, G. A. Voth, 
 P. Salvador, J. J. Dannenberg, S. Dapprich, A. D. Daniels, 
 O. Farkas, J. B. Foresman, J. V. Ortiz, J. Cioslowski, 
 and D. J. Fox, Gaussian, Inc., Wallingford CT, 2010.
 
 ******************************************
 Gaussian 09:  EM64L-G09RevC.01 23-Sep-2011
                19-Sep-2024 
 ******************************************
 %nprocshared=4
 Will use up to    4 processors via shared memory.
 %mem=100mw
 --------------------------------------------------
 # mPW1PW91/6-31+G** nmr scrf=(pcm,solvent=benzene)
 --------------------------------------------------
 1/38=1/1;
 2/12=2,17=6,18=5,40=1/2;
 3/5=1,6=6,7=111,11=2,16=1,25=1,30=1,70=2201,72=12,74=-7/1,2,8,3;
 4//1;
 5/5=2,38=5,53=12/2;
 8/6=1,10=90,11=11/1;
 10/13=100,45=16/2;
 6/7=2,8=2,9=2,10=2,28=1/1;
 99/9=1/99;
 -------
 comment
 -------
 Charge =  0 Multiplicity = 1
 Symbolic Z-Matrix:
 6                     2.3745   -0.31483  -0.27254 
 6                     0.25672   1.12682   0.04936 
 6                     0.04212  -1.37327  -0.12903 
 6                    -0.63573  -0.02385  -0.4467 
 6                     1.45494  -1.46692  -0.72754 
 6                     1.67273   1.03236  -0.54082 
 6                     2.83515  -0.46566   1.1875 
 8                    -0.36544   2.35572  -0.34121 
 6                    -2.10424   0.09311   0.04929 
 6                    -2.27434  -0.10232   1.56491 
 6                    -3.03974  -0.85123  -0.72311 
 1                     3.27998  -0.34232  -0.89531 
 1                     0.31767   1.08344   1.14938 
 1                    -0.56824  -2.19715  -0.5172 
 1                     0.09153  -1.51812   0.95824 
 1                    -0.6713    0.07983  -1.54335 
 1                     1.37515  -1.44223  -1.82384 
 1                     1.90978  -2.43286  -0.47045 
 1                     1.58337   1.1911   -1.62422 
 1                     2.28597   1.85956  -0.15127 
 1                     3.50703   0.35355   1.47134 
 1                     1.99925  -0.4643    1.89566 
 1                     3.38095  -1.40662   1.32641 
 1                     0.20571   3.0796   -0.04048 
 1                    -2.41212   1.11912  -0.18374 
 1                    -2.02565  -1.12396   1.87785 
 1                    -1.64926   0.58846   2.14181 
 1                    -3.31544   0.08154   1.85613 
 1                    -2.83489  -1.90603  -0.50202 
 1                    -2.94224  -0.71162  -1.80677 
 1                    -4.08644  -0.66195  -0.45642 
 
                          Input orientation:                          
 ---------------------------------------------------------------------
 Center     Atomic      Atomic             Coordinates (Angstroms)
 Number     Number       Type             X           Y           Z
 ---------------------------------------------------------------------
      1          6           0        2.374497   -0.314832   -0.272542
      2          6           0        0.256720    1.126815    0.049361
      3          6           0        0.042120   -1.373272   -0.129026
      4          6           0       -0.635734   -0.023848   -0.446700
      5          6           0        1.454944   -1.466923   -0.727541
      6          6           0        1.672732    1.032363   -0.540823
      7          6           0        2.835150   -0.465661    1.187498
      8          8           0       -0.365436    2.355719   -0.341210
      9          6           0       -2.104242    0.093111    0.049289
     10          6           0       -2.274338   -0.102322    1.564914
     11          6           0       -3.039738   -0.851231   -0.723111
     12          1           0        3.279975   -0.342315   -0.895313
     13          1           0        0.317672    1.083442    1.149380
     14          1           0       -0.568242   -2.197155   -0.517201
     15          1           0        0.091526   -1.518118    0.958244
     16          1           0       -0.671303    0.079827   -1.543346
     17          1           0        1.375154   -1.442230   -1.823837
     18          1           0        1.909784   -2.432864   -0.470454
     19          1           0        1.583368    1.191099   -1.624219
     20          1           0        2.285974    1.859564   -0.151273
     21          1           0        3.507033    0.353554    1.471337
     22          1           0        1.999245   -0.464298    1.895661
     23          1           0        3.380950   -1.406622    1.326408
     24          1           0        0.205711    3.079602   -0.040475
     25          1           0       -2.412119    1.119115   -0.183738
     26          1           0       -2.025649   -1.123956    1.877849
     27          1           0       -1.649260    0.588458    2.141812
     28          1           0       -3.315437    0.081543    1.856131
     29          1           0       -2.834894   -1.906033   -0.502015
     30          1           0       -2.942240   -0.711615   -1.806765
     31          1           0       -4.086437   -0.661949   -0.456418
 ---------------------------------------------------------------------
                    Distance matrix (angstroms):
                    1          2          3          4          5
     1  C    0.000000
     2  C    2.582043   0.000000
     3  C    2.565322   2.515613   0.000000
     4  C    3.029273   1.538368   1.543162   0.000000
     5  C    1.542697   2.960877   1.537226   2.555831   0.000000
     6  C    1.542525   1.536987   2.935226   2.540365   2.515696
     7  C    1.538398   3.237227   3.218386   3.861714   2.564151
     8  O    3.826721   1.431722   3.757193   2.397192   4.251544
     9  C    4.508780   2.577341   2.605560   1.554413   3.962950
    10  C    5.003306   3.195924   3.138586   2.595722   4.585306
    11  C    5.459366   3.921226   3.181715   2.557382   4.536658
    12  H    1.099313   3.491536   3.483357   3.954169   2.150262
    13  H    2.864884   1.102560   2.783109   2.163919   3.364607
    14  H    3.501815   3.471359   1.096360   2.175497   2.161195
    15  H    2.859141   2.801612   1.097988   2.176147   2.168732
    16  H    3.323792   2.119935   2.149598   1.102110   2.752980
    17  H    2.162459   3.370424   2.157341   2.819926   1.099473
    18  H    2.177427   3.959058   2.174276   3.504794   1.098187
    19  H    2.172727   2.136585   3.344704   2.790531   2.808132
    20  H    2.179573   2.166806   3.935302   3.488681   3.476811
    21  H    2.184146   3.631044   4.189118   4.580810   3.515718
    22  H    2.205506   2.996140   2.959042   3.552994   2.860544
    23  H    2.182108   4.220185   3.642415   4.603230   2.816353
    24  H    4.034807   1.955518   4.456758   3.241057   4.764822
    25  H    4.997578   2.679010   3.498325   2.128628   4.683747
    26  H    4.963884   3.690332   2.892296   2.923291   4.361217
    27  H    4.778667   2.881135   3.444685   2.846497   4.700411
    28  H    6.087997   4.137308   4.162995   3.534819   5.641777
    29  H    5.451819   4.365806   2.949604   2.895166   4.318147
    30  H    5.547880   4.130178   3.486976   2.764556   4.590255
    31  H    6.472864   4.724246   4.202160   3.509219   5.606103
                    6          7          8          9         10
     6  C    0.000000
     7  C    2.565616   0.000000
     8  O    2.438287   4.532205   0.000000
     9  C    3.936491   5.099543   2.880162   0.000000
    10  C    4.615301   5.136275   3.649545   1.537610   0.000000
    11  C    5.078241   6.189782   4.193121   1.537380   2.526215
    12  H    2.144442   2.133351   4.568965   5.483763   6.079532
    13  H    2.166929   2.956158   2.075376   2.838419   2.880490
    14  H    3.930943   4.181764   4.560786   2.815231   3.410908
    15  H    3.354455   2.947490   4.111448   2.871177   2.823090
    16  H    2.721558   4.477754   2.591982   2.142423   3.502025
    17  H    2.803264   3.486175   4.433086   4.239348   5.157303
    18  H    3.474039   2.734044   5.303193   4.771068   5.203943
    19  H    1.098604   3.495363   2.607736   4.195792   5.169662
    20  H    1.100943   2.738717   2.704112   4.736515   5.252689
    21  H    2.806106   1.096861   4.721229   5.794520   5.800072
    22  H    2.878030   1.095552   4.306716   4.534137   4.301620
    23  H    3.514713   1.096632   5.565210   5.828170   5.808646
    24  H    2.567817   4.581567   0.969875   3.776648   4.341953
    25  H    4.101347   5.650277   2.396434   1.096255   2.137446
    26  H    4.917083   4.953514   4.448446   2.197967   1.097046
    27  H    4.292926   4.704446   3.307085   2.197960   1.095770
    28  H    5.615272   6.210976   4.324661   2.175271   1.096586
    29  H    5.380926   6.089214   4.928145   2.198719   2.799963
    30  H    5.093332   6.511861   4.265713   2.189694   3.490781
    31  H    6.003819   7.116836   4.792227   2.180585   2.771763
                   11         12         13         14         15
    11  C    0.000000
    12  H    6.342509   0.000000
    13  H    4.303648   3.871536   0.000000
    14  H    2.821738   4.288610   3.784792   0.000000
    15  H    3.616145   3.870968   2.618356   1.753090   0.000000
    16  H    2.673787   4.026257   3.039093   2.499648   3.064847
    17  H    4.588262   2.387533   4.041943   2.460487   3.064871
    18  H    5.202227   2.535414   4.186059   2.489650   2.486765
    19  H    5.133831   2.400237   3.050644   4.163554   4.029214
    20  H    6.003217   2.527826   2.483601   4.973673   4.177962
    21  H    7.009088   2.477261   3.287616   5.202717   3.928372
    22  H    5.692015   3.073221   2.404188   3.926409   2.372484
    23  H    6.762708   2.465561   3.951636   4.429442   3.311840
    24  H    5.142993   4.678821   2.326574   5.354478   4.706326
    25  H    2.137076   5.919633   3.038130   3.809032   3.811477
    26  H    2.804951   6.037469   3.300671   3.002009   2.341680
    27  H    3.494842   5.864113   2.258042   3.999824   2.978058
    28  H    2.756550   7.158880   3.834420   4.286286   3.869433
    29  H    1.097019   6.323885   4.647875   2.285321   3.293443
    30  H    1.096952   6.299451   4.752689   3.083127   4.183235
    31  H    1.096600   7.386394   5.002115   3.839043   4.493292
                   16         17         18         19         20
    16  H    0.000000
    17  H    2.565798   0.000000
    18  H    3.758553   1.760350   0.000000
    19  H    2.514957   2.649079   3.817176   0.000000
    20  H    3.721669   3.811680   4.320687   1.763539   0.000000
    21  H    5.159625   4.316007   3.753116   3.739577   2.528224
    22  H    4.388014   3.896217   3.079246   3.911885   3.110062
    23  H    5.183220   3.734773   2.538940   4.322691   3.748398
    24  H    3.467914   4.999494   5.785847   2.823584   2.414180
    25  H    2.441126   4.857350   5.601572   4.247833   4.756196
    26  H    3.871424   5.036789   4.766068   5.536151   5.622172
    27  H    3.846491   5.384900   5.349684   4.999605   4.728638
    28  H    4.306726   6.153511   6.248054   6.110830   6.210220
    29  H    3.115949   4.436984   4.773941   5.511135   6.366006
    30  H    2.419282   4.378810   5.318887   4.912715   6.056883
    31  H    3.659889   5.683982   6.252280   6.078177   6.859939
                   21         22         23         24         25
    21  H    0.000000
    22  H    1.767019   0.000000
    23  H    1.770627   1.766673   0.000000
    24  H    4.540445   4.418667   5.663631   0.000000
    25  H    6.193684   5.127497   6.497656   3.273693   0.000000
    26  H    5.740981   4.078632   5.441994   5.131163   3.070972
    27  H    5.205005   3.805322   5.472499   3.795931   2.504343
    28  H    6.838725   5.342785   6.880177   4.998395   2.460407
    29  H    7.015689   5.585369   6.498404   5.857888   3.071084
    30  H    7.312569   6.179595   7.091018   5.234759   2.503361
    31  H    7.899891   6.527394   7.713292   5.709181   2.459651
                   26         27         28         29         30
    26  H    0.000000
    27  H    1.773050   0.000000
    28  H    1.765574   1.764858   0.000000
    29  H    2.632541   3.823354   3.121255   0.000000
    30  H    3.819233   4.353533   3.766322   1.772154   0.000000
    31  H    3.147872   3.775467   2.548549   1.765272   1.770619
                   31
    31  H    0.000000
 Stoichiometry    C10H20O
 Framework group  C1[X(C10H20O)]
 Deg. of freedom    87
 Full point group                 C1      NOp   1
 Largest Abelian subgroup         C1      NOp   1
 Largest concise Abelian subgroup C1      NOp   1
                         Standard orientation:                         
 ---------------------------------------------------------------------
 Center     Atomic      Atomic             Coordinates (Angstroms)
 Number     Number       Type             X           Y           Z
 ---------------------------------------------------------------------
      1          6           0        2.374497   -0.314832   -0.272542
      2          6           0        0.256720    1.126815    0.049361
      3          6           0        0.042120   -1.373272   -0.129026
      4          6           0       -0.635734   -0.023848   -0.446700
      5          6           0        1.454944   -1.466923   -0.727541
      6          6           0        1.672732    1.032363   -0.540823
      7          6           0        2.835150   -0.465661    1.187498
      8          8           0       -0.365436    2.355719   -0.341210
      9          6           0       -2.104242    0.093111    0.049289
     10          6           0       -2.274338   -0.102322    1.564914
     11          6           0       -3.039738   -0.851231   -0.723111
     12          1           0        3.279975   -0.342315   -0.895313
     13          1           0        0.317672    1.083442    1.149380
     14          1           0       -0.568242   -2.197155   -0.517201
     15          1           0        0.091526   -1.518118    0.958244
     16          1           0       -0.671303    0.079827   -1.543346
     17          1           0        1.375154   -1.442230   -1.823837
     18          1           0        1.909784   -2.432864   -0.470454
     19          1           0        1.583368    1.191099   -1.624219
     20          1           0        2.285974    1.859564   -0.151273
     21          1           0        3.507033    0.353554    1.471337
     22          1           0        1.999245   -0.464298    1.895661
     23          1           0        3.380950   -1.406622    1.326408
     24          1           0        0.205711    3.079602   -0.040475
     25          1           0       -2.412119    1.119115   -0.183738
     26          1           0       -2.025649   -1.123956    1.877849
     27          1           0       -1.649260    0.588458    2.141812
     28          1           0       -3.315437    0.081543    1.856131
     29          1           0       -2.834894   -1.906033   -0.502015
     30          1           0       -2.942240   -0.711615   -1.806765
     31          1           0       -4.086437   -0.661949   -0.456418
 ---------------------------------------------------------------------
 Rotational constants (GHZ):      1.5722072      0.7538648      0.6427548
 Standard basis: 6-31+G(d,p) (6D, 7F)
 There are   309 symmetry adapted basis functions of A   symmetry.
 Integral buffers will be    131072 words long.
 Raffenetti 2 integral format.
 Two-electron integral symmetry is turned on.
   309 basis functions,   492 primitive gaussians,   309 cartesian basis functions
    44 alpha electrons       44 beta electrons
       nuclear repulsion energy       693.9461249972 Hartrees.
 NAtoms=   31 NActive=   31 NUniq=   31 SFac= 1.00D+00 NAtFMM=   60 NAOKFM=F Big=F
 ------------------------------------------------------------------------------
 Polarizable Continuum Model (PCM)
 =================================
 Model                : PCM.
 Atomic radii         : UFF (Universal Force Field).
 Polarization charges : Total charges.
 Charge compensation  : None.
 Solution method      : Matrix inversion.
 Cavity type          : Scaled VdW (van der Waals Surface) (Alpha=1.100).
 Cavity algorithm     : GePol (No added spheres)
                        Default sphere list used, NSphG=   31.
                        Lebedev-Laikov grids with approx.  5.0 points / Ang**2.
                        Smoothing algorithm: Karplus/York (Gamma=1.0000).
                        Polarization charges: spherical gaussians, with
                                              point-specific exponents (IZeta= 3).
                        Self-potential: point-specific (ISelfS= 7).
                        Self-field    : sphere-specific E.n sum rule (ISelfD= 2).
 Solvent              : Benzene, Eps=   2.270600 Eps(inf)=   2.253301
 ------------------------------------------------------------------------------
 One-electron integrals computed using PRISM.
 NBasis=   309 RedAO= T  NBF=   309
 NBsUse=   309 1.00D-06 NBFU=   309
 Harris functional with IExCor=  908 diagonalized for initial guess.
 ExpMin= 4.38D-02 ExpMax= 5.48D+03 ExpMxC= 8.25D+02 IAcc=2 IRadAn=         4 AccDes= 0.00D+00
 HarFok:  IExCor=  908 AccDes= 0.00D+00 IRadAn=         4 IDoV= 1
 ScaDFX=  1.000000  1.000000  1.000000  1.000000
 FoFCou: FMM=F IPFlag=           0 FMFlag=      100000 FMFlg1=           0
         NFxFlg=           0 DoJE=T BraDBF=F KetDBF=T FulRan=T
         Omega=  0.000000  0.000000  1.000000  0.000000  0.000000 ICntrl=     500 IOpCl=  0
         NMat0=    1 NMatS0=    1 NMatT0=    0 NMatD0=    1 NMtDS0=    0 NMtDT0=    0
         I1Cent=           4 NGrid=           0.
 Petite list used in FoFCou.
 Initial guess orbital symmetries:
       Occupied  (A) (A) (A) (A) (A) (A) (A) (A) (A) (A) (A) (A)
                 (A) (A) (A) (A) (A) (A) (A) (A) (A) (A) (A) (A)
                 (A) (A) (A) (A) (A) (A) (A) (A) (A) (A) (A) (A)
                 (A) (A) (A) (A) (A) (A) (A) (A)
       Virtual   (A) (A) (A) (A) (A) (A) (A) (A) (A) (A) (A) (A)
                 (A) (A) (A) (A) (A) (A) (A) (A) (A) (A) (A) (A)
                 (A) (A) (A) (A) (A) (A) (A) (A) (A) (A) (A) (A)
                 (A) (A) (A) (A) (A) (A) (A) (A) (A) (A) (A) (A)
                 (A) (A) (A) (A) (A) (A) (A) (A) (A) (A) (A) (A)
                 (A) (A) (A) (A) (A) (A) (A) (A) (A) (A) (A) (A)
                 (A) (A) (A) (A) (A) (A) (A) (A) (A) (A) (A) (A)
                 (A) (A) (A) (A) (A) (A) (A) (A) (A) (A) (A) (A)
                 (A) (A) (A) (A) (A) (A) (A) (A) (A) (A) (A) (A)
                 (A) (A) (A) (A) (A) (A) (A) (A) (A) (A) (A) (A)
                 (A) (A) (A) (A) (A) (A) (A) (A) (A) (A) (A) (A)
                 (A) (A) (A) (A) (A) (A) (A) (A) (A) (A) (A) (A)
                 (A) (A) (A) (A) (A) (A) (A) (A) (A) (A) (A) (A)
                 (A) (A) (A) (A) (A) (A) (A) (A) (A) (A) (A) (A)
                 (A) (A) (A) (A) (A) (A) (A) (A) (A) (A) (A) (A)
                 (A) (A) (A) (A) (A) (A) (A) (A) (A) (A) (A) (A)
                 (A) (A) (A) (A) (A) (A) (A) (A) (A) (A) (A) (A)
                 (A) (A) (A) (A) (A) (A) (A) (A) (A) (A) (A) (A)
                 (A) (A) (A) (A) (A) (A) (A) (A) (A) (A) (A) (A)
                 (A) (A) (A) (A) (A) (A) (A) (A) (A) (A) (A) (A)
                 (A) (A) (A) (A) (A) (A) (A) (A) (A) (A) (A) (A)
                 (A) (A) (A) (A) (A) (A) (A) (A) (A) (A) (A) (A)
                 (A)
 The electronic state of the initial guess is 1-A.
 Requested convergence on RMS density matrix=1.00D-08 within 128 cycles.
 Requested convergence on MAX density matrix=1.00D-06.
 Requested convergence on             energy=1.00D-06.
 No special actions if energy rises.
 Error on total polarization charges =  0.00928
 SCF Done:  E(RmPW1PW91) =  -468.282469292     A.U. after   12 cycles
             Convg  =    0.7924D-08             -V/T =  2.0099
 Range of M.O.s used for correlation:     1   309
 NBasis=   309 NAE=    44 NBE=    44 NFC=     0 NFV=     0
 NROrb=    309 NOA=    44 NOB=    44 NVA=   265 NVB=   265

 **** Warning!!: The largest alpha MO coefficient is  0.66914284D+02

 NEqPCM:  Using equilibrium solvation (IEInf=0, Eps=   2.2706, EpsInf=   2.2533)
          Differentiating once with respect to magnetic field using GIAOs.
          Electric field/nuclear overlap derivatives assumed to be zero.
 FoFCou: FMM=F IPFlag=           0 FMFlag=    10101102 FMFlg1=           0
         NFxFlg=    40000000 DoJE=F BraDBF=F KetDBF=T FulRan=T
         Omega=  0.000000  0.000000  1.000000  0.000000  0.000000 ICntrl=    6100 IOpCl=  0
         NMat0=    1 NMatS0=    1 NMatT0=    0 NMatD0=    1 NMtDS0=    0 NMtDT0=    0
         I1Cent=           7 NGrid=        1928.
 Symmetry not used in FoFCou.
          There are     3 degrees of freedom in the 1st order CPHF.  IDoFFX=0.
      3 vectors produced by pass  0 Test12= 3.89D-13 3.33D-08 XBig12= 3.74D+01 1.48D+00.
 AX will form     3 AO Fock derivatives at one time.
      3 vectors produced by pass  1 Test12= 3.89D-13 3.33D-08 XBig12= 7.85D-02 4.72D-02.
      3 vectors produced by pass  2 Test12= 3.89D-13 3.33D-08 XBig12= 1.65D-04 3.15D-03.
      3 vectors produced by pass  3 Test12= 3.89D-13 3.33D-08 XBig12= 5.58D-07 1.67D-04.
      3 vectors produced by pass  4 Test12= 3.89D-13 3.33D-08 XBig12= 1.53D-09 6.12D-06.
      3 vectors produced by pass  5 Test12= 3.89D-13 3.33D-08 XBig12= 3.29D-12 3.09D-07.
 Inverted reduced A of dimension    18 with in-core refinement.
 Calculating GIAO nuclear magnetic shielding tensors.
 SCF GIAO Magnetic shielding tensor (ppm):
      1  C    Isotropic =   163.7049   Anisotropy =     4.8356
   XX=   165.4574   YX=     0.4217   ZX=     1.4964
   XY=     2.2697   YY=   165.6640   ZY=    -1.4342
   XZ=     0.5135   YZ=     0.5145   ZZ=   159.9934
   Eigenvalues:   159.7308   164.4553   166.9286
      2  C    Isotropic =   128.3068   Anisotropy =    56.9952
   XX=   118.9163   YX=   -10.3694   ZX=     4.2943
   XY=   -16.5843   YY=   156.5420   ZY=   -14.8090
   XZ=     4.3063   YZ=   -19.3339   ZZ=   109.4620
   Eigenvalues:   103.9230   114.6937   166.3036
      3  C    Isotropic =   176.0948   Anisotropy =    12.4187
   XX=   179.4279   YX=    -4.4025   ZX=    -3.7542
   XY=    -3.1252   YY=   180.9988   ZY=    -0.8379
   XZ=    -3.1375   YZ=     0.9642   ZZ=   167.8576
   Eigenvalues:   166.8424   177.0680   184.3739
      4  C    Isotropic =   144.7125   Anisotropy =    11.8730
   XX=   147.8624   YX=    12.2047   ZX=    -1.0622
   XY=    -0.5111   YY=   138.9670   ZY=    -0.0529
   XZ=    -5.9670   YZ=     0.2642   ZZ=   147.3080
   Eigenvalues:   135.8158   145.6938   152.6278
      5  C    Isotropic =   162.7228   Anisotropy =    12.0739
   XX=   165.3762   YX=     3.8184   ZX=     5.0690
   XY=     4.0230   YY=   162.7644   ZY=     5.9628
   XZ=     3.3393   YZ=     0.3420   ZZ=   160.0278
   Eigenvalues:   157.4555   159.9409   170.7721
      6  C    Isotropic =   151.8971   Anisotropy =    25.9905
   XX=   161.1113   YX=   -15.7548   ZX=    -0.2303
   XY=    -6.8899   YY=   153.2766   ZY=    -9.6953
   XZ=    -4.8690   YZ=    -1.4013   ZZ=   141.3035
   Eigenvalues:   136.9229   149.5444   169.2241
      7  C    Isotropic =   176.4838   Anisotropy =    30.2995
   XX=   164.6604   YX=    -1.0528   ZX=    15.4764
   XY=    -1.3981   YY=   178.4025   ZY=    -3.0259
   XZ=    19.3523   YZ=    -3.3980   ZZ=   186.3885
   Eigenvalues:   154.9889   177.7790   196.6834
      8  O    Isotropic =   279.2899   Anisotropy =    66.7073
   XX=   272.5491   YX=    25.1752   ZX=     7.3036
   XY=     7.0274   YY=   317.4333   ZY=     5.7273
   XZ=    16.1416   YZ=     6.1521   ZZ=   247.8872
   Eigenvalues:   243.2011   270.9071   323.7614
      9  C    Isotropic =   168.0072   Anisotropy =    10.5259
   XX=   173.9401   YX=    -0.2758   ZX=    -1.1062
   XY=     2.6302   YY=   158.3435   ZY=     3.2645
   XZ=    -2.4269   YZ=     5.5873   ZZ=   171.7380
   Eigenvalues:   156.8555   172.1416   175.0245
     10  C    Isotropic =   180.2054   Anisotropy =    25.0249
   XX=   172.1379   YX=     0.4765   ZX=    -2.5461
   XY=     0.5021   YY=   171.5902   ZY=    -1.7516
   XZ=     2.3263   YZ=     1.6099   ZZ=   196.8879
   Eigenvalues:   171.3034   172.4241   196.8886
     11  C    Isotropic =   174.1146   Anisotropy =    36.3411
   XX=   174.9399   YX=    13.2653   ZX=    11.3553
   XY=    16.5993   YY=   164.2158   ZY=    12.8923
   XZ=     6.9404   YZ=     9.1858   ZZ=   183.1881
   Eigenvalues:   153.1246   170.8772   198.3420
     12  H    Isotropic =    29.6272   Anisotropy =    10.0836
   XX=    33.9364   YX=    -0.4633   ZX=    -4.0406
   XY=    -0.3283   YY=    25.6088   ZY=     0.1307
   XZ=    -4.1535   YZ=     0.0921   ZZ=    29.3365
   Eigenvalues:    25.5861    26.9459    36.3496
     13  H    Isotropic =    27.7225   Anisotropy =     2.1817
   XX=    27.9349   YX=    -1.6287   ZX=     0.3982
   XY=    -1.3367   YY=    26.6531   ZY=    -1.1044
   XZ=    -0.0408   YZ=     0.2180   ZZ=    28.5795
   Eigenvalues:    25.6530    28.3376    29.1770
     14  H    Isotropic =    30.1790   Anisotropy =     9.0622
   XX=    32.9081   YX=     2.0660   ZX=     0.5675
   XY=     2.7731   YY=    33.7181   ZY=     2.8063
   XZ=     0.2657   YZ=     2.5883   ZZ=    23.9108
   Eigenvalues:    23.2136    31.1029    36.2205
     15  H    Isotropic =    30.2499   Anisotropy =     5.5945
   XX=    31.2290   YX=    -1.4164   ZX=    -1.4027
   XY=    -0.6039   YY=    27.4121   ZY=    -3.5466
   XZ=    -0.9612   YZ=    -3.1341   ZZ=    32.1086
   Eigenvalues:    25.3231    31.4470    33.9796
     16  H    Isotropic =    30.3276   Anisotropy =     3.4028
   XX=    31.3308   YX=     0.1788   ZX=     0.2207
   XY=     0.7906   YY=    27.1704   ZY=    -0.7200
   XZ=     0.2353   YZ=    -0.6965   ZZ=    32.4814
   Eigenvalues:    27.0172    31.3694    32.5961
     17  H    Isotropic =    30.0351   Anisotropy =     8.8946
   XX=    28.4931   YX=     0.0722   ZX=    -1.2402
   XY=     0.1738   YY=    27.2637   ZY=     4.1367
   XZ=    -1.0383   YZ=     2.9857   ZZ=    34.3485
   Eigenvalues:    25.6715    28.4689    35.9648
     18  H    Isotropic =    30.1152   Anisotropy =     9.7146
   XX=    30.1728   YX=    -3.3578   ZX=    -0.0240
   XY=    -3.5739   YY=    34.6604   ZY=     0.7791
   XZ=     0.1445   YZ=     0.9149   ZZ=    25.5125
   Eigenvalues:    25.3942    28.3597    36.5916
     19  H    Isotropic =    30.0696   Anisotropy =     6.5908
   XX=    28.6388   YX=     0.4149   ZX=    -1.6337
   XY=    -0.3480   YY=    29.3461   ZY=    -3.6513
   XZ=    -1.2998   YZ=    -2.5187   ZZ=    32.2241
   Eigenvalues:    26.9801    28.7654    34.4635
     20  H    Isotropic =    30.0877   Anisotropy =     7.0363
   XX=    31.3959   YX=     2.6137   ZX=     0.8462
   XY=     2.6495   YY=    32.6421   ZY=     0.6543
   XZ=     1.0589   YZ=    -0.4175   ZZ=    26.2252
   Eigenvalues:    26.0331    29.4515    34.7786
     21  H    Isotropic =    30.7188   Anisotropy =    10.2342
   XX=    32.1580   YX=     3.5020   ZX=     4.0836
   XY=     3.2654   YY=    30.2762   ZY=     1.2595
   XZ=     4.6719   YZ=     2.5946   ZZ=    29.7222
   Eigenvalues:    26.2853    28.3295    37.5416
     22  H    Isotropic =    30.2656   Anisotropy =     5.3551
   XX=    31.5445   YX=    -0.4123   ZX=     0.0385
   XY=    -0.4322   YY=    25.6245   ZY=    -0.7474
   XZ=    -1.2665   YZ=    -0.6655   ZZ=    33.6279
   Eigenvalues:    25.5250    31.4362    33.8357
     23  H    Isotropic =    30.7848   Anisotropy =    10.9922
   XX=    31.2000   YX=    -4.3872   ZX=     3.3170
   XY=    -4.5675   YY=    32.1320   ZY=    -1.7379
   XZ=     3.7009   YZ=    -3.2080   ZZ=    29.0223
   Eigenvalues:    26.2574    27.9840    38.1130
     24  H    Isotropic =    31.1443   Anisotropy =    18.6202
   XX=    28.8065   YX=     4.5343   ZX=     3.5834
   XY=     5.6427   YY=    40.8848   ZY=     3.5570
   XZ=     3.0553   YZ=     2.5190   ZZ=    23.7414
   Eigenvalues:    22.0840    27.7911    43.5577
     25  H    Isotropic =    28.9685   Anisotropy =     6.8703
   XX=    29.8237   YX=    -1.0705   ZX=     0.4067
   XY=    -0.7201   YY=    32.8437   ZY=    -2.2357
   XZ=     0.6709   YZ=    -1.7584   ZZ=    24.2381
   Eigenvalues:    23.7785    29.5782    33.5487
     26  H    Isotropic =    30.9849   Anisotropy =     7.3548
   XX=    29.1524   YX=    -1.1412   ZX=    -1.4643
   XY=    -1.0695   YY=    32.1600   ZY=    -3.4758
   XZ=    -1.2251   YZ=    -4.4772   ZZ=    31.6425
   Eigenvalues:    26.6902    30.3765    35.8881
     27  H    Isotropic =    30.5024   Anisotropy =     8.7369
   XX=    29.4072   YX=     2.6682   ZX=    -0.0712
   XY=     2.8161   YY=    28.1309   ZY=     3.4688
   XZ=     0.8688   YZ=     4.3637   ZZ=    33.9691
   Eigenvalues:    24.9459    30.2343    36.3270
     28  H    Isotropic =    30.8291   Anisotropy =    11.0001
   XX=    34.7936   YX=    -1.4706   ZX=    -4.0921
   XY=    -1.3209   YY=    26.4439   ZY=     1.1614
   XZ=    -4.9692   YZ=     1.1278   ZZ=    31.2498
   Eigenvalues:    26.1558    28.1691    38.1625
     29  H    Isotropic =    30.6232   Anisotropy =     7.1945
   XX=    30.5213   YX=     2.0076   ZX=     0.9837
   XY=     1.2597   YY=    34.7408   ZY=     0.4815
   XZ=     0.9559   YZ=     1.0204   ZZ=    26.6075
   Eigenvalues:    26.3636    30.0864    35.4196
     30  H    Isotropic =    30.8080   Anisotropy =    10.2382
   XX=    29.4742   YX=     1.2559   ZX=     3.4382
   XY=     1.0570   YY=    26.4589   ZY=     1.3563
   XZ=     2.3313   YZ=     0.1506   ZZ=    36.4908
   Eigenvalues:    26.0608    28.7297    37.6334
     31  H    Isotropic =    30.5879   Anisotropy =    10.7804
   XX=    37.6887   YX=     0.2181   ZX=     0.3598
   XY=     1.2770   YY=    26.5124   ZY=     0.6683
   XZ=     0.7312   YZ=     1.2322   ZZ=    27.5628
   Eigenvalues:    25.9400    28.0489    37.7749
 End of Minotr Frequency-dependent properties file   721 does not exist.
 End of Minotr Frequency-dependent properties file   722 does not exist.

 **********************************************************************

            Population analysis using the SCF density.

 **********************************************************************

 Orbital symmetries:
       Occupied  (A) (A) (A) (A) (A) (A) (A) (A) (A) (A) (A) (A)
                 (A) (A) (A) (A) (A) (A) (A) (A) (A) (A) (A) (A)
                 (A) (A) (A) (A) (A) (A) (A) (A) (A) (A) (A) (A)
                 (A) (A) (A) (A) (A) (A) (A) (A)
       Virtual   (A) (A) (A) (A) (A) (A) (A) (A) (A) (A) (A) (A)
                 (A) (A) (A) (A) (A) (A) (A) (A) (A) (A) (A) (A)
                 (A) (A) (A) (A) (A) (A) (A) (A) (A) (A) (A) (A)
                 (A) (A) (A) (A) (A) (A) (A) (A) (A) (A) (A) (A)
                 (A) (A) (A) (A) (A) (A) (A) (A) (A) (A) (A) (A)
                 (A) (A) (A) (A) (A) (A) (A) (A) (A) (A) (A) (A)
                 (A) (A) (A) (A) (A) (A) (A) (A) (A) (A) (A) (A)
                 (A) (A) (A) (A) (A) (A) (A) (A) (A) (A) (A) (A)
                 (A) (A) (A) (A) (A) (A) (A) (A) (A) (A) (A) (A)
                 (A) (A) (A) (A) (A) (A) (A) (A) (A) (A) (A) (A)
                 (A) (A) (A) (A) (A) (A) (A) (A) (A) (A) (A) (A)
                 (A) (A) (A) (A) (A) (A) (A) (A) (A) (A) (A) (A)
                 (A) (A) (A) (A) (A) (A) (A) (A) (A) (A) (A) (A)
                 (A) (A) (A) (A) (A) (A) (A) (A) (A) (A) (A) (A)
                 (A) (A) (A) (A) (A) (A) (A) (A) (A) (A) (A) (A)
                 (A) (A) (A) (A) (A) (A) (A) (A) (A) (A) (A) (A)
                 (A) (A) (A) (A) (A) (A) (A) (A) (A) (A) (A) (A)
                 (A) (A) (A) (A) (A) (A) (A) (A) (A) (A) (A) (A)
                 (A) (A) (A) (A) (A) (A) (A) (A) (A) (A) (A) (A)
                 (A) (A) (A) (A) (A) (A) (A) (A) (A) (A) (A) (A)
                 (A) (A) (A) (A) (A) (A) (A) (A) (A) (A) (A) (A)
                 (A) (A) (A) (A) (A) (A) (A) (A) (A) (A) (A) (A)
                 (A)
 The electronic state is 1-A.
 Alpha  occ. eigenvalues --  -19.24532 -10.29346 -10.25306 -10.24471 -10.24350
 Alpha  occ. eigenvalues --  -10.24141 -10.24040 -10.23945 -10.23513 -10.22883
 Alpha  occ. eigenvalues --  -10.22864  -1.05052  -0.86061  -0.81948  -0.76230
 Alpha  occ. eigenvalues --   -0.75313  -0.69917  -0.69806  -0.63772  -0.62254
 Alpha  occ. eigenvalues --   -0.56798  -0.54974  -0.52613  -0.49049  -0.46538
 Alpha  occ. eigenvalues --   -0.45597  -0.45252  -0.44833  -0.42799  -0.40595
 Alpha  occ. eigenvalues --   -0.40444  -0.39862  -0.38931  -0.38290  -0.37584
 Alpha  occ. eigenvalues --   -0.35547  -0.35272  -0.34741  -0.33527  -0.33100
 Alpha  occ. eigenvalues --   -0.31927  -0.31054  -0.30016  -0.27782
 Alpha virt. eigenvalues --    0.00622   0.01414   0.01735   0.02359   0.03724
 Alpha virt. eigenvalues --    0.04439   0.04675   0.04888   0.05588   0.06854
 Alpha virt. eigenvalues --    0.07247   0.07868   0.08140   0.08274   0.09257
 Alpha virt. eigenvalues --    0.09660   0.09864   0.11017   0.11711   0.11980
 Alpha virt. eigenvalues --    0.12477   0.12578   0.13481   0.14295   0.14983
 Alpha virt. eigenvalues --    0.15230   0.15849   0.15952   0.17074   0.17435
 Alpha virt. eigenvalues --    0.17642   0.18046   0.18819   0.19176   0.19403
 Alpha virt. eigenvalues --    0.20071   0.20747   0.21588   0.21688   0.22375
 Alpha virt. eigenvalues --    0.22908   0.23363   0.23969   0.24046   0.24315
 Alpha virt. eigenvalues --    0.24960   0.25909   0.26096   0.26527   0.27108
 Alpha virt. eigenvalues --    0.27926   0.28771   0.28915   0.30099   0.30396
 Alpha virt. eigenvalues --    0.31444   0.31777   0.32440   0.33015   0.33195
 Alpha virt. eigenvalues --    0.34004   0.34748   0.35412   0.36622   0.37142
 Alpha virt. eigenvalues --    0.37765   0.38250   0.39458   0.40329   0.41636
 Alpha virt. eigenvalues --    0.41826   0.44109   0.45671   0.49923   0.52769
 Alpha virt. eigenvalues --    0.62173   0.64520   0.65531   0.66194   0.66251
 Alpha virt. eigenvalues --    0.68672   0.69315   0.70790   0.71462   0.71948
 Alpha virt. eigenvalues --    0.73237   0.74254   0.75847   0.76516   0.76653
 Alpha virt. eigenvalues --    0.77888   0.79267   0.81622   0.82384   0.83250
 Alpha virt. eigenvalues --    0.85881   0.86478   0.88665   0.91617   0.94028
 Alpha virt. eigenvalues --    0.96032   0.96894   0.97987   0.99024   1.00162
 Alpha virt. eigenvalues --    1.00967   1.01751   1.02978   1.03973   1.05858
 Alpha virt. eigenvalues --    1.06578   1.07179   1.08290   1.11096   1.11602
 Alpha virt. eigenvalues --    1.12957   1.14155   1.14769   1.16056   1.16560
 Alpha virt. eigenvalues --    1.17480   1.18933   1.20146   1.20757   1.21627
 Alpha virt. eigenvalues --    1.24042   1.26823   1.27148   1.29274   1.32340
 Alpha virt. eigenvalues --    1.36727   1.38222   1.38584   1.40864   1.46352
 Alpha virt. eigenvalues --    1.48091   1.50536   1.53081   1.54779   1.56765
 Alpha virt. eigenvalues --    1.59683   1.60699   1.62886   1.63916   1.67421
 Alpha virt. eigenvalues --    1.70514   1.74278   1.77422   1.79387   1.79737
 Alpha virt. eigenvalues --    1.82537   1.84135   1.86177   1.86854   1.87783
 Alpha virt. eigenvalues --    1.88210   1.89870   1.91900   1.92416   1.93850
 Alpha virt. eigenvalues --    1.94979   1.95576   1.98621   2.01486   2.04674
 Alpha virt. eigenvalues --    2.04750   2.06210   2.06490   2.07528   2.08066
 Alpha virt. eigenvalues --    2.09141   2.10344   2.13681   2.14498   2.15518
 Alpha virt. eigenvalues --    2.16777   2.17187   2.17978   2.18674   2.19399
 Alpha virt. eigenvalues --    2.21197   2.21571   2.24135   2.26592   2.30109
 Alpha virt. eigenvalues --    2.32409   2.32767   2.35316   2.36146   2.37738
 Alpha virt. eigenvalues --    2.38547   2.40341   2.41969   2.42539   2.43121
 Alpha virt. eigenvalues --    2.46922   2.49855   2.50798   2.53815   2.58253
 Alpha virt. eigenvalues --    2.58944   2.60706   2.61952   2.64170   2.66239
 Alpha virt. eigenvalues --    2.67358   2.68882   2.69693   2.70919   2.73194
 Alpha virt. eigenvalues --    2.73885   2.75006   2.76316   2.77157   2.78514
 Alpha virt. eigenvalues --    2.78898   2.81105   2.82740   2.85917   2.86261
 Alpha virt. eigenvalues --    2.87784   2.90444   2.90573   2.91368   2.92483
 Alpha virt. eigenvalues --    2.92827   2.93530   2.96012   2.96440   2.98029
 Alpha virt. eigenvalues --    2.99157   3.06176   3.08198   3.14015   3.29577
 Alpha virt. eigenvalues --    3.29868   3.31328   3.36209   3.36808   3.38077
 Alpha virt. eigenvalues --    3.41581   3.43369   3.46749   3.48724   3.50643
 Alpha virt. eigenvalues --    3.51524   3.53607   3.54039   3.54859   3.56288
 Alpha virt. eigenvalues --    3.57913   3.59962   3.60735   3.64947   4.36108
 Alpha virt. eigenvalues --    4.45505   4.48689   4.51871   4.57287   4.60361
 Alpha virt. eigenvalues --    4.66471   4.76239   4.82539   4.86799   4.90152
          Condensed to atoms (all electrons):
              1          2          3          4          5          6
     1  C    6.582490  -0.585148  -0.285899   0.183648  -0.063411  -0.365522
     2  C   -0.585148   7.362283  -0.324366  -1.096899   0.174796  -0.061889
     3  C   -0.285899  -0.324366   6.615522  -0.615469  -0.120959   0.138485
     4  C    0.183648  -1.096899  -0.615469   8.420086  -0.018194  -0.135018
     5  C   -0.063411   0.174796  -0.120959  -0.018194   6.046770   0.067110
     6  C   -0.365522  -0.061889   0.138485  -0.135018   0.067110   6.416604
     7  C    0.149614  -0.000300  -0.026767   0.028788  -0.083604  -0.040721
     8  O    0.001992   0.264087   0.064081  -0.226055   0.015594  -0.013818
     9  C    0.104990   0.253223   0.107729  -0.848647  -0.109034  -0.116980
    10  C    0.013239  -0.010360  -0.024191  -0.078184  -0.043044  -0.021495
    11  C    0.009463  -0.154559   0.053529   0.224025   0.009228  -0.010682
    12  H    0.240407   0.047000   0.031966  -0.011349  -0.005471   0.010233
    13  H    0.062482   0.327126   0.042904  -0.077664  -0.034182  -0.066437
    14  H    0.042386   0.030670   0.270306  -0.026218   0.023186  -0.001878
    15  H    0.025193  -0.011178   0.454011  -0.065164  -0.078336  -0.039784
    16  H    0.035298  -0.002756   0.035020   0.260422  -0.054715  -0.066290
    17  H    0.017087  -0.014276  -0.039018   0.026227   0.357937  -0.049655
    18  H   -0.096287  -0.011096  -0.062853   0.031126   0.418042   0.043892
    19  H    0.035455  -0.107696   0.012252   0.037105  -0.057402   0.379316
    20  H   -0.080056  -0.055608  -0.019398   0.034341   0.038713   0.411167
    21  H   -0.091057   0.003729  -0.010121  -0.004703   0.032858   0.003550
    22  H   -0.079149   0.023302  -0.002451   0.013936  -0.011281  -0.011247
    23  H   -0.092113  -0.010435   0.007176  -0.004539   0.002207   0.030079
    24  H    0.009120  -0.007072  -0.019968   0.091514   0.001344  -0.049084
    25  H    0.000711  -0.013096   0.010578  -0.077230  -0.004502   0.004743
    26  H   -0.000283  -0.009878   0.007870   0.000526  -0.002665   0.001463
    27  H   -0.000618  -0.001748  -0.015043   0.019511   0.001302   0.003726
    28  H    0.000235   0.005778  -0.003684   0.023765   0.000326  -0.000142
    29  H    0.001085   0.000853   0.002761  -0.020632  -0.002103  -0.000935
    30  H   -0.000648  -0.004702   0.016193   0.003117  -0.000655  -0.000857
    31  H   -0.000154  -0.005745  -0.000323   0.042623   0.000542   0.000411
              7          8          9         10         11         12
     1  C    0.149614   0.001992   0.104990   0.013239   0.009463   0.240407
     2  C   -0.000300   0.264087   0.253223  -0.010360  -0.154559   0.047000
     3  C   -0.026767   0.064081   0.107729  -0.024191   0.053529   0.031966
     4  C    0.028788  -0.226055  -0.848647  -0.078184   0.224025  -0.011349
     5  C   -0.083604   0.015594  -0.109034  -0.043044   0.009228  -0.005471
     6  C   -0.040721  -0.013818  -0.116980  -0.021495  -0.010682   0.010233
     7  C    5.359825  -0.004058  -0.003746  -0.001177   0.000018  -0.021963
     8  O   -0.004058   8.290231  -0.022923  -0.004638  -0.014161  -0.000793
     9  C   -0.003746  -0.022923   6.842046   0.088070  -0.358781  -0.001129
    10  C   -0.001177  -0.004638   0.088070   5.461238  -0.094462   0.000274
    11  C    0.000018  -0.014161  -0.358781  -0.094462   5.642229   0.000163
    12  H   -0.021963  -0.000793  -0.001129   0.000274   0.000163   0.575089
    13  H    0.011867  -0.050690   0.024376  -0.003729   0.010289  -0.000232
    14  H    0.001038  -0.000459   0.018234  -0.010035  -0.015404  -0.000132
    15  H    0.009086   0.000070   0.005300   0.006803   0.006442  -0.000085
    16  H    0.003458   0.001548   0.049897   0.014457  -0.007683  -0.000108
    17  H    0.012578  -0.000154   0.006666   0.000781   0.001769  -0.006023
    18  H    0.003696   0.000084  -0.003702   0.000953  -0.001000  -0.001829
    19  H    0.012446   0.000367   0.006396   0.000445   0.001131  -0.006127
    20  H    0.002010  -0.010003  -0.003459  -0.001613   0.000417  -0.002303
    21  H    0.424011  -0.000028  -0.000377  -0.000357  -0.000035  -0.003727
    22  H    0.422011  -0.000385  -0.002101   0.001808   0.000486   0.004836
    23  H    0.426227   0.000029  -0.000395  -0.000025  -0.000123  -0.004028
    24  H   -0.000857   0.220050  -0.014723   0.001539   0.001490  -0.000007
    25  H   -0.000327   0.001242   0.399276  -0.013179  -0.022427   0.000000
    26  H   -0.000389  -0.000037  -0.084356   0.440156  -0.001639   0.000000
    27  H    0.000379   0.001612  -0.077541   0.435608  -0.006819   0.000000
    28  H   -0.000089   0.000212  -0.106321   0.437952   0.001971   0.000000
    29  H   -0.000128  -0.000022  -0.070295  -0.001614   0.440347   0.000000
    30  H    0.000091  -0.000105  -0.103888   0.000005   0.450468   0.000000
    31  H   -0.000035   0.000121  -0.139995   0.004996   0.457196   0.000000
             13         14         15         16         17         18
     1  C    0.062482   0.042386   0.025193   0.035298   0.017087  -0.096287
     2  C    0.327126   0.030670  -0.011178  -0.002756  -0.014276  -0.011096
     3  C    0.042904   0.270306   0.454011   0.035020  -0.039018  -0.062853
     4  C   -0.077664  -0.026218  -0.065164   0.260422   0.026227   0.031126
     5  C   -0.034182   0.023186  -0.078336  -0.054715   0.357937   0.418042
     6  C   -0.066437  -0.001878  -0.039784  -0.066290  -0.049655   0.043892
     7  C    0.011867   0.001038   0.009086   0.003458   0.012578   0.003696
     8  O   -0.050690  -0.000459   0.000070   0.001548  -0.000154   0.000084
     9  C    0.024376   0.018234   0.005300   0.049897   0.006666  -0.003702
    10  C   -0.003729  -0.010035   0.006803   0.014457   0.000781   0.000953
    11  C    0.010289  -0.015404   0.006442  -0.007683   0.001769  -0.001000
    12  H   -0.000232  -0.000132  -0.000085  -0.000108  -0.006023  -0.001829
    13  H    0.613444  -0.000078   0.002298   0.005329   0.000066   0.000009
    14  H   -0.000078   0.551925  -0.030785  -0.004499  -0.004688  -0.002672
    15  H    0.002298  -0.030785   0.547541   0.004706   0.004557  -0.003458
    16  H    0.005329  -0.004499   0.004706   0.561986   0.002769   0.000035
    17  H    0.000066  -0.004688   0.004557   0.002769   0.544921  -0.027451
    18  H    0.000009  -0.002672  -0.003458   0.000035  -0.027451   0.553262
    19  H    0.004799  -0.000041   0.000082   0.003298   0.002326  -0.000007
    20  H   -0.006120   0.000011  -0.000015  -0.000019  -0.000043  -0.000137
    21  H    0.000063   0.000002  -0.000033   0.000001  -0.000129   0.000066
    22  H   -0.002581  -0.000043  -0.001081  -0.000040  -0.000077  -0.000087
    23  H    0.000017  -0.000018   0.000188   0.000002   0.000064   0.002967
    24  H   -0.006066   0.000005  -0.000003  -0.000193   0.000001   0.000000
    25  H    0.000108   0.000017  -0.000031  -0.003515   0.000000   0.000002
    26  H   -0.000054   0.000061  -0.001176  -0.000066  -0.000002   0.000006
    27  H    0.001063   0.000095  -0.000055  -0.000020   0.000000   0.000000
    28  H   -0.000010  -0.000015   0.000041  -0.000082   0.000000   0.000000
    29  H    0.000001  -0.000126   0.000080  -0.000162   0.000007   0.000005
    30  H    0.000002  -0.000043   0.000039   0.003958   0.000005   0.000000
    31  H    0.000001  -0.000024  -0.000012   0.000101   0.000000   0.000000
             19         20         21         22         23         24
     1  C    0.035455  -0.080056  -0.091057  -0.079149  -0.092113   0.009120
     2  C   -0.107696  -0.055608   0.003729   0.023302  -0.010435  -0.007072
     3  C    0.012252  -0.019398  -0.010121  -0.002451   0.007176  -0.019968
     4  C    0.037105   0.034341  -0.004703   0.013936  -0.004539   0.091514
     5  C   -0.057402   0.038713   0.032858  -0.011281   0.002207   0.001344
     6  C    0.379316   0.411167   0.003550  -0.011247   0.030079  -0.049084
     7  C    0.012446   0.002010   0.424011   0.422011   0.426227  -0.000857
     8  O    0.000367  -0.010003  -0.000028  -0.000385   0.000029   0.220050
     9  C    0.006396  -0.003459  -0.000377  -0.002101  -0.000395  -0.014723
    10  C    0.000445  -0.001613  -0.000357   0.001808  -0.000025   0.001539
    11  C    0.001131   0.000417  -0.000035   0.000486  -0.000123   0.001490
    12  H   -0.006127  -0.002303  -0.003727   0.004836  -0.004028  -0.000007
    13  H    0.004799  -0.006120   0.000063  -0.002581   0.000017  -0.006066
    14  H   -0.000041   0.000011   0.000002  -0.000043  -0.000018   0.000005
    15  H    0.000082  -0.000015  -0.000033  -0.001081   0.000188  -0.000003
    16  H    0.003298  -0.000019   0.000001  -0.000040   0.000002  -0.000193
    17  H    0.002326  -0.000043  -0.000129  -0.000077   0.000064   0.000001
    18  H   -0.000007  -0.000137   0.000066  -0.000087   0.002967   0.000000
    19  H    0.528427  -0.029622   0.000045  -0.000112  -0.000120  -0.001008
    20  H   -0.029622   0.564126   0.003174  -0.000055   0.000054   0.005083
    21  H    0.000045   0.003174   0.532950  -0.028112  -0.024679   0.000003
    22  H   -0.000112  -0.000055  -0.028112   0.537109  -0.027713   0.000006
    23  H   -0.000120   0.000054  -0.024679  -0.027713   0.529691   0.000000
    24  H   -0.001008   0.005083   0.000003   0.000006   0.000000   0.408115
    25  H    0.000007  -0.000010   0.000000   0.000000   0.000000  -0.000183
    26  H    0.000000   0.000000   0.000000  -0.000003   0.000000   0.000001
    27  H   -0.000002   0.000008   0.000000  -0.000007   0.000000  -0.000008
    28  H    0.000000   0.000000   0.000000   0.000000   0.000000   0.000000
    29  H    0.000000   0.000000   0.000000   0.000000   0.000000   0.000000
    30  H    0.000002   0.000000   0.000000   0.000000   0.000000   0.000000
    31  H    0.000000   0.000000   0.000000   0.000000   0.000000   0.000000
             25         26         27         28         29         30
     1  C    0.000711  -0.000283  -0.000618   0.000235   0.001085  -0.000648
     2  C   -0.013096  -0.009878  -0.001748   0.005778   0.000853  -0.004702
     3  C    0.010578   0.007870  -0.015043  -0.003684   0.002761   0.016193
     4  C   -0.077230   0.000526   0.019511   0.023765  -0.020632   0.003117
     5  C   -0.004502  -0.002665   0.001302   0.000326  -0.002103  -0.000655
     6  C    0.004743   0.001463   0.003726  -0.000142  -0.000935  -0.000857
     7  C   -0.000327  -0.000389   0.000379  -0.000089  -0.000128   0.000091
     8  O    0.001242  -0.000037   0.001612   0.000212  -0.000022  -0.000105
     9  C    0.399276  -0.084356  -0.077541  -0.106321  -0.070295  -0.103888
    10  C   -0.013179   0.440156   0.435608   0.437952  -0.001614   0.000005
    11  C   -0.022427  -0.001639  -0.006819   0.001971   0.440347   0.450468
    12  H    0.000000   0.000000   0.000000   0.000000   0.000000   0.000000
    13  H    0.000108  -0.000054   0.001063  -0.000010   0.000001   0.000002
    14  H    0.000017   0.000061   0.000095  -0.000015  -0.000126  -0.000043
    15  H   -0.000031  -0.001176  -0.000055   0.000041   0.000080   0.000039
    16  H   -0.003515  -0.000066  -0.000020  -0.000082  -0.000162   0.003958
    17  H    0.000000  -0.000002   0.000000   0.000000   0.000007   0.000005
    18  H    0.000002   0.000006   0.000000   0.000000   0.000005   0.000000
    19  H    0.000007   0.000000  -0.000002   0.000000   0.000000   0.000002
    20  H   -0.000010   0.000000   0.000008   0.000000   0.000000   0.000000
    21  H    0.000000   0.000000   0.000000   0.000000   0.000000   0.000000
    22  H    0.000000  -0.000003  -0.000007   0.000000   0.000000   0.000000
    23  H    0.000000   0.000000   0.000000   0.000000   0.000000   0.000000
    24  H   -0.000183   0.000001  -0.000008   0.000000   0.000000   0.000000
    25  H    0.541102   0.004646  -0.003372  -0.003952   0.004700  -0.003649
    26  H    0.004646   0.539151  -0.029607  -0.028333   0.003379  -0.000001
    27  H   -0.003372  -0.029607   0.538769  -0.025334   0.000010  -0.000133
    28  H   -0.003952  -0.028333  -0.025334   0.530840  -0.000175   0.000062
    29  H    0.004700   0.003379   0.000010  -0.000175   0.542592  -0.029062
    30  H   -0.003649  -0.000001  -0.000133   0.000062  -0.029062   0.533085
    31  H   -0.004153  -0.000125   0.000036   0.002525  -0.028872  -0.024841
             31
     1  C   -0.000154
     2  C   -0.005745
     3  C   -0.000323
     4  C    0.042623
     5  C    0.000542
     6  C    0.000411
     7  C   -0.000035
     8  O    0.000121
     9  C   -0.139995
    10  C    0.004996
    11  C    0.457196
    12  H    0.000000
    13  H    0.000001
    14  H   -0.000024
    15  H   -0.000012
    16  H    0.000101
    17  H    0.000000
    18  H    0.000000
    19  H    0.000000
    20  H    0.000000
    21  H    0.000000
    22  H    0.000000
    23  H    0.000000
    24  H    0.000000
    25  H   -0.004153
    26  H   -0.000125
    27  H    0.000036
    28  H    0.002525
    29  H   -0.028872
    30  H   -0.024841
    31  H    0.532084
 Mulliken atomic charges:
              1
     1  C    0.225450
     2  C   -0.004039
     3  C   -0.299870
     4  C   -0.134793
     5  C   -0.500393
     6  C   -0.458348
     7  C   -0.682982
     8  O   -0.512989
     9  C    0.162191
    10  C   -0.600221
    11  C   -0.622886
    12  H    0.155341
    13  H    0.141598
    14  H    0.159224
    15  H    0.164759
    16  H    0.157863
    17  H    0.163756
    18  H    0.156434
    19  H    0.178240
    20  H    0.149357
    21  H    0.162907
    22  H    0.163033
    23  H    0.165487
    24  H    0.360902
    25  H    0.182497
    26  H    0.161358
    27  H    0.158188
    28  H    0.164429
    29  H    0.158307
    30  H    0.161558
    31  H    0.163645
 Sum of Mulliken atomic charges =   0.00000
 Mulliken charges with hydrogens summed into heavy atoms:
              1
     1  C    0.380791
     2  C    0.137559
     3  C    0.024113
     4  C    0.023070
     5  C   -0.180204
     6  C   -0.130751
     7  C   -0.191556
     8  O   -0.152087
     9  C    0.344688
    10  C   -0.116246
    11  C   -0.139376
 Sum of Mulliken charges with hydrogens summed into heavy atoms =   0.00000
 Electronic spatial extent (au):  <R**2>=           2075.4302
 Charge=              0.0000 electrons
 Dipole moment (field-independent basis, Debye):
    X=              1.7292    Y=             -0.2246    Z=              0.6714  Tot=              1.8685
 Quadrupole moment (field-independent basis, Debye-Ang):
   XX=            -71.8480   YY=            -70.2995   ZZ=            -72.8924
   XY=              3.4833   XZ=             -0.4828   YZ=              2.5617
 Traceless Quadrupole moment (field-independent basis, Debye-Ang):
   XX=             -0.1680   YY=              1.3805   ZZ=             -1.2125
   XY=              3.4833   XZ=             -0.4828   YZ=              2.5617
 Octapole moment (field-independent basis, Debye-Ang**2):
  XXX=              1.9734  YYY=             23.0907  ZZZ=             -4.7381  XYY=             12.9406
  XXY=              4.5533  XXZ=             -0.7483  XZZ=              1.0380  YZZ=              2.2787
  YYZ=              6.7426  XYZ=             -0.3810
 Hexadecapole moment (field-independent basis, Debye-Ang**3):
 XXXX=          -1756.9771 YYYY=           -599.5379 ZZZZ=           -424.7565 XXXY=            -13.5269
 XXXZ=            -10.1918 YYYX=             25.0674 YYYZ=             12.2492 ZZZX=             -0.1570
 ZZZY=              1.1717 XXYY=           -410.7800 XXZZ=           -373.9257 YYZZ=           -190.2360
 XXYZ=             -0.0892 YYXZ=              0.5484 ZZXY=             -0.5772
 N-N= 6.939461249972D+02 E-N=-2.473337167830D+03  KE= 4.636976670314D+02
 1\1\GINC-COMPUTE-10-8\SP\RmPW1PW91\6-31+G(d,p)\C10H20O1\ASAROTTI.IQUIR
 \19-Sep-2024\0\\# mPW1PW91/6-31+G** nmr scrf=(pcm,solvent=benzene)\\co
 mment\\0,1\C,0,2.374497,-0.314832,-0.272542\C,0,0.25672,1.126815,0.049
 361\C,0,0.04212,-1.373272,-0.129026\C,0,-0.635734,-0.023848,-0.4467\C,
 0,1.454944,-1.466923,-0.727541\C,0,1.672732,1.032363,-0.540823\C,0,2.8
 3515,-0.465661,1.187498\O,0,-0.365436,2.355719,-0.34121\C,0,-2.104242,
 0.093111,0.049289\C,0,-2.274338,-0.102322,1.564914\C,0,-3.039738,-0.85
 1231,-0.723111\H,0,3.279975,-0.342315,-0.895313\H,0,0.317672,1.083442,
 1.14938\H,0,-0.568242,-2.197155,-0.517201\H,0,0.091526,-1.518118,0.958
 244\H,0,-0.671303,0.079827,-1.543346\H,0,1.375154,-1.44223,-1.823837\H
 ,0,1.909784,-2.432864,-0.470454\H,0,1.583368,1.191099,-1.624219\H,0,2.
 285974,1.859564,-0.151273\H,0,3.507033,0.353554,1.471337\H,0,1.999245,
 -0.464298,1.895661\H,0,3.38095,-1.406622,1.326408\H,0,0.205711,3.07960
 2,-0.040475\H,0,-2.412119,1.119115,-0.183738\H,0,-2.025649,-1.123956,1
 .877849\H,0,-1.64926,0.588458,2.141812\H,0,-3.315437,0.081543,1.856131
 \H,0,-2.834894,-1.906033,-0.502015\H,0,-2.94224,-0.711615,-1.806765\H,
 0,-4.086437,-0.661949,-0.456418\\Version=EM64L-G09RevC.01\State=1-A\HF
 =-468.2824693\RMSD=7.924e-09\Dipole=0.6803319,-0.0883522,0.2641477\Qua
 drupole=-0.1249053,1.0263406,-0.9014353,2.5897373,-0.3589421,1.9045813
 \PG=C01 [X(C10H20O1)]\\@


 WOE UNTO THEM THAT CALL EVIL GOOD, AND GOOD EVIL      
 Job cpu time:  0 days  0 hours 14 minutes  8.5 seconds.
 File lengths (MBytes):  RWF=    121 Int=      0 D2E=      0 Chk=      7 Scr=      1
 Normal termination of Gaussian 09 at Thu Sep 19 08:17:13 2024.
