 Entering Gaussian System, Link 0=g09
 Input=/home/asarotti.iquir/SCF2/02_Mentol06_OptB_NMR_benzene.gjc
 Output=/home/asarotti.iquir/SCF2/02_Mentol06_OptB_NMR_benzene.log
 Initial command:
 /opt/ohpc/pub/apps/software/Gaussian/09/AMD64.SSE4a-enabled/g09/l1.exe /local/asarotti.iquir/Gau-2482018.inp -scrdir=/local/asarotti.iquir/
 Entering Link 1 = /opt/ohpc/pub/apps/software/Gaussian/09/AMD64.SSE4a-enabled/g09/l1.exe PID=   2482019.
  
 Copyright (c) 1988,1990,1992,1993,1995,1998,2003,2009,2011,
            Gaussian, Inc.  All Rights Reserved.
  
 This is part of the Gaussian(R) 09 program.  It is based on
 the Gaussian(R) 03 system (copyright 2003, Gaussian, Inc.),
 the Gaussian(R) 98 system (copyright 1998, Gaussian, Inc.),
 the Gaussian(R) 94 system (copyright 1995, Gaussian, Inc.),
 the Gaussian 92(TM) system (copyright 1992, Gaussian, Inc.),
 the Gaussian 90(TM) system (copyright 1990, Gaussian, Inc.),
 the Gaussian 88(TM) system (copyright 1988, Gaussian, Inc.),
 the Gaussian 86(TM) system (copyright 1986, Carnegie Mellon
 University), and the Gaussian 82(TM) system (copyright 1983,
 Carnegie Mellon University). Gaussian is a federally registered
 trademark of Gaussian, Inc.
  
 This software contains proprietary and confidential information,
 including trade secrets, belonging to Gaussian, Inc.
  
 This software is provided under written license and may be
 used, copied, transmitted, or stored only in accord with that
 written license.
  
 The following legend is applicable only to US Government
 contracts under FAR:
  
                    RESTRICTED RIGHTS LEGEND
  
 Use, reproduction and disclosure by the US Government is
 subject to restrictions as set forth in subparagraphs (a)
 and (c) of the Commercial Computer Software - Restricted
 Rights clause in FAR 52.227-19.
  
 Gaussian, Inc.
 340 Quinnipiac St., Bldg. 40, Wallingford CT 06492
  
  
 ---------------------------------------------------------------
 Warning -- This program may not be used in any manner that
 competes with the business of Gaussian, Inc. or will provide
 assistance to any competitor of Gaussian, Inc.  The licensee
 of this program is prohibited from giving any competitor of
 Gaussian, Inc. access to this program.  By using this program,
 the user acknowledges that Gaussian, Inc. is engaged in the
 business of creating and licensing software in the field of
 computational chemistry and represents and warrants to the
 licensee that it is not a competitor of Gaussian, Inc. and that
 it will not use this program in any manner prohibited above.
 ---------------------------------------------------------------
  

 Cite this work as:
 Gaussian 09, Revision C.01,
 M. J. Frisch, G. W. Trucks, H. B. Schlegel, G. E. Scuseria, 
 M. A. Robb, J. R. Cheeseman, G. Scalmani, V. Barone, B. Mennucci, 
 G. A. Petersson, H. Nakatsuji, M. Caricato, X. Li, H. P. Hratchian, 
 A. F. Izmaylov, J. Bloino, G. Zheng, J. L. Sonnenberg, M. Hada, 
 M. Ehara, K. Toyota, R. Fukuda, J. Hasegawa, M. Ishida, T. Nakajima, 
 Y. Honda, O. Kitao, H. Nakai, T. Vreven, J. A. Montgomery, Jr., 
 J. E. Peralta, F. Ogliaro, M. Bearpark, J. J. Heyd, E. Brothers, 
 K. N. Kudin, V. N. Staroverov, T. Keith, R. Kobayashi, J. Normand, 
 K. Raghavachari, A. Rendell, J. C. Burant, S. S. Iyengar, J. Tomasi, 
 M. Cossi, N. Rega, J. M. Millam, M. Klene, J. E. Knox, J. B. Cross, 
 V. Bakken, C. Adamo, J. Jaramillo, R. Gomperts, R. E. Stratmann, 
 O. Yazyev, A. J. Austin, R. Cammi, C. Pomelli, J. W. Ochterski, 
 R. L. Martin, K. Morokuma, V. G. Zakrzewski, G. A. Voth, 
 P. Salvador, J. J. Dannenberg, S. Dapprich, A. D. Daniels, 
 O. Farkas, J. B. Foresman, J. V. Ortiz, J. Cioslowski, 
 and D. J. Fox, Gaussian, Inc., Wallingford CT, 2010.
 
 ******************************************
 Gaussian 09:  AM64L-G09RevC.01 23-Sep-2011
                19-Sep-2024 
 ******************************************
 %nprocshared=4
 Will use up to    4 processors via shared memory.
 %mem=100mw
 --------------------------------------------------
 # mPW1PW91/6-31+G** nmr scrf=(pcm,solvent=benzene)
 --------------------------------------------------
 1/38=1/1;
 2/12=2,17=6,18=5,40=1/2;
 3/5=1,6=6,7=111,11=2,16=1,25=1,30=1,70=2201,72=12,74=-7/1,2,8,3;
 4//1;
 5/5=2,38=5,53=12/2;
 8/6=1,10=90,11=11/1;
 10/13=100,45=16/2;
 6/7=2,8=2,9=2,10=2,28=1/1;
 99/9=1/99;
 -------
 comment
 -------
 Charge =  0 Multiplicity = 1
 Symbolic Z-Matrix:
 6                     2.42488   0.1008   -0.28217 
 6                     0.01759   0.92535   0.15043 
 6                     0.42431  -1.50505  -0.31519 
 6                    -0.57473  -0.33917  -0.49191 
 6                     1.81873  -1.1864   -0.87692 
 6                     1.40605   1.25008  -0.42365 
 6                     2.91411  -0.08923   1.16401 
 8                    -0.88043   2.01738  -0.08035 
 6                    -1.99869  -0.73343   0.00527 
 6                    -3.11802   0.02173  -0.73086 
 6                    -2.17805  -0.61153   1.5277 
 1                     3.30599   0.36638  -0.88335 
 1                     0.10818   0.75579   1.23527 
 1                     0.02437  -2.39506  -0.81755 
 1                     0.49884  -1.76804   0.7495 
 1                    -0.65175  -0.13368  -1.57123 
 1                     1.73765  -1.06621  -1.96687 
 1                     2.49609  -2.03406  -0.7076 
 1                     1.27286   1.49604  -1.48611 
 1                     1.79528   2.15802   0.06281 
 1                     3.35686   0.83628   1.55192 
 1                     2.10814  -0.37899   1.84718 
 1                     3.68159  -0.87098   1.21297 
 1                    -0.47774   2.80992   0.30845 
 1                    -2.11457  -1.79856  -0.24864 
 1                    -3.06793   1.0942   -0.52702 
 1                    -3.04103  -0.11931  -1.81609 
 1                    -4.10266  -0.34764  -0.41696 
 1                    -2.16783   0.43848   1.84066 
 1                    -1.39498  -1.14226   2.08287 
 1                    -3.14095  -1.03824   1.83236 
 
                          Input orientation:                          
 ---------------------------------------------------------------------
 Center     Atomic      Atomic             Coordinates (Angstroms)
 Number     Number       Type             X           Y           Z
 ---------------------------------------------------------------------
      1          6           0        2.424880    0.100802   -0.282168
      2          6           0        0.017593    0.925348    0.150430
      3          6           0        0.424311   -1.505048   -0.315190
      4          6           0       -0.574727   -0.339169   -0.491906
      5          6           0        1.818730   -1.186398   -0.876923
      6          6           0        1.406045    1.250076   -0.423651
      7          6           0        2.914105   -0.089226    1.164006
      8          8           0       -0.880432    2.017381   -0.080352
      9          6           0       -1.998692   -0.733434    0.005270
     10          6           0       -3.118022    0.021725   -0.730864
     11          6           0       -2.178045   -0.611531    1.527704
     12          1           0        3.305986    0.366379   -0.883353
     13          1           0        0.108183    0.755794    1.235273
     14          1           0        0.024366   -2.395064   -0.817550
     15          1           0        0.498838   -1.768043    0.749500
     16          1           0       -0.651750   -0.133684   -1.571227
     17          1           0        1.737647   -1.066208   -1.966873
     18          1           0        2.496092   -2.034062   -0.707600
     19          1           0        1.272859    1.496042   -1.486112
     20          1           0        1.795279    2.158020    0.062809
     21          1           0        3.356860    0.836281    1.551919
     22          1           0        2.108137   -0.378987    1.847183
     23          1           0        3.681593   -0.870978    1.212969
     24          1           0       -0.477743    2.809924    0.308454
     25          1           0       -2.114571   -1.798561   -0.248639
     26          1           0       -3.067928    1.094196   -0.527017
     27          1           0       -3.041035   -0.119313   -1.816085
     28          1           0       -4.102658   -0.347635   -0.416958
     29          1           0       -2.167831    0.438480    1.840657
     30          1           0       -1.394976   -1.142260    2.082866
     31          1           0       -3.140952   -1.038240    1.832357
 ---------------------------------------------------------------------
                    Distance matrix (angstroms):
                    1          2          3          4          5
     1  C    0.000000
     2  C    2.581094   0.000000
     3  C    2.565564   2.507797   0.000000
     4  C    3.038948   1.537024   1.545503   0.000000
     5  C    1.542088   2.959564   1.536713   2.568009   0.000000
     6  C    1.542360   1.537145   2.926820   2.540436   2.512403
     7  C    1.538464   3.232101   3.223608   3.869944   2.563011
     8  O    3.826107   1.432566   3.763643   2.411672   4.264294
     9  C    4.510716   2.614964   2.563011   1.558944   3.944129
    10  C    5.561595   3.380132   3.879683   2.579863   5.084527
    11  C    4.996996   3.013255   3.311629   2.592997   4.699672
    12  H    1.099228   3.492089   3.482686   3.963706   2.150137
    13  H    2.845826   1.101744   2.759579   2.156028   3.340577
    14  H    3.504062   3.458637   1.097474   2.166024   2.164288
    15  H    2.875162   2.800864   1.099220   2.176077   2.173862
    16  H    3.343996   2.129242   2.148529   1.101404   2.773722
    17  H    2.161581   3.377551   2.155340   2.837461   1.099550
    18  H    2.178005   3.954400   2.173964   3.514131   1.098191
    19  H    2.173322   2.140013   3.331311   2.787475   2.804384
    20  H    2.178888   2.165023   3.929441   3.487204   3.474015
    21  H    2.184809   3.622542   4.191391   4.584352   3.515160
    22  H    2.205597   2.991761   2.962961   3.559590   2.855945
    23  H    2.181540   4.216713   3.653382   4.615808   2.817339
    24  H    4.014150   1.954982   4.452147   3.250657   4.759149
    25  H    4.920906   3.482106   2.556658   2.135445   4.029931
    26  H    5.587282   3.163524   4.358517   2.876077   5.403977
    27  H    5.681336   3.783345   4.022632   2.807928   5.063399
    28  H    6.544312   4.349584   4.673693   3.528737   5.998160
    29  H    5.070839   2.805350   3.891552   2.929773   5.090986
    30  H    4.661533   3.163015   3.031846   2.819080   4.369234
    31  H    6.061940   4.081784   4.188194   3.532196   5.653370
                    6          7          8          9         10
     6  C    0.000000
     7  C    2.566833   0.000000
     8  O    2.436101   4.514945   0.000000
     9  C    3.963650   5.088541   2.970660   0.000000
    10  C    4.697915   6.323717   3.067999   1.537875   0.000000
    11  C    4.485428   5.131771   3.343774   1.537801   2.526994
    12  H    2.145232   2.133735   4.571292   5.489886   6.435054
    13  H    2.163513   2.931269   2.073603   2.858256   3.848760
    14  H    3.918066   4.194526   4.564186   2.744232   3.965222
    15  H    3.362789   2.970481   4.113450   2.803917   4.298421
    16  H    2.732443   4.494307   2.627182   2.158540   2.610145
    17  H    2.802974   3.484387   4.463387   4.237961   5.127264
    18  H    3.471944   2.731306   5.311172   4.733170   5.978719
    19  H    1.098663   3.497126   2.623855   4.230583   4.692957
    20  H    1.101140   2.741263   2.683226   4.770538   5.416106
    21  H    2.807095   1.096846   4.691903   5.791206   6.913660
    22  H    2.881574   1.095571   4.288300   4.514900   5.841201
    23  H    3.515041   1.096618   5.552240   5.808881   7.128125
    24  H    2.552991   4.543311   0.970285   3.867892   3.978104
    25  H    4.660424   5.495905   4.014079   1.101087   2.133752
    26  H    4.477881   6.328093   2.415972   2.183306   1.092821
    27  H    4.857018   6.659245   3.499491   2.186540   1.097052
    28  H    5.735724   7.197304   4.011153   2.180319   1.097484
    29  H    4.307942   5.153873   2.800107   2.184179   2.772953
    30  H    4.455515   4.530051   3.863625   2.201821   3.498689
    31  H    5.567867   6.165309   4.255024   2.176215   2.773834
                   11         12         13         14         15
    11  C    0.000000
    12  H    6.069934   0.000000
    13  H    2.679913   3.855667   0.000000
    14  H    3.678562   4.289397   3.761517   0.000000
    15  H    3.018083   3.886135   2.599681   1.753261   0.000000
    16  H    3.487304   4.048075   3.040577   2.477701   3.062802
    17  H    5.267964   2.384535   4.028472   2.454004   3.066904
    18  H    5.372870   2.539475   4.154535   2.500368   2.486550
    19  H    5.043182   2.402720   3.051290   4.140823   4.031293
    20  H    5.060003   2.527338   2.487409   4.964045   4.191214
    21  H    5.721182   2.480715   3.265064   5.211669   3.949009
    22  H    4.304358   3.073474   2.379491   3.937953   2.392536
    23  H    5.873817   2.463067   3.926340   4.452096   3.339080
    24  H    4.010480   4.659176   2.328466   5.349009   4.701703
    25  H    2.137396   5.871309   3.696939   2.292276   2.797699
    26  H    2.814831   6.425222   3.647994   4.671362   4.748024
    27  H    3.488260   6.433550   4.471484   3.946238   4.672391
    28  H    2.748725   7.457570   4.656029   4.624367   4.954992
    29  H    1.095704   6.114581   2.376430   4.461027   3.629117
    30  H    1.096848   5.759643   2.565250   3.463591   2.399167
    31  H    1.096396   7.135198   3.759248   4.345367   3.866945
                   16         17         18         19         20
    16  H    0.000000
    17  H    2.595256   0.000000
    18  H    3.777062   1.760042   0.000000
    19  H    2.523365   2.648072   3.816283   0.000000
    20  H    3.729602   3.810325   4.319516   1.763603   0.000000
    21  H    5.173377   4.315462   3.753028   3.742723   2.530411
    22  H    4.400304   3.893143   3.068664   3.914624   3.117415
    23  H    5.203192   3.732082   2.539048   4.323173   3.749117
    24  H    3.496900   5.010935   5.774103   2.830435   2.377383
    25  H    2.580872   4.281151   4.639431   4.884714   5.571217
    26  H    2.904476   5.462058   6.385681   4.463606   5.013023
    27  H    2.401842   4.873925   5.962783   4.618218   5.666253
    28  H    3.645117   6.085043   6.817038   5.782596   6.426052
    29  H    3.777145   5.658103   5.861677   4.901446   4.671595
    30  H    3.862901   5.120498   4.870567   5.178377   5.014998
    31  H    4.312625   6.183499   6.262532   6.075899   6.141153
                   21         22         23         24         25
    21  H    0.000000
    22  H    1.767305   0.000000
    23  H    1.770613   1.766365   0.000000
    24  H    4.488391   4.384474   5.627367   0.000000
    25  H    6.334111   4.923304   6.049151   4.922163   0.000000
    26  H    6.757692   5.882070   7.241926   3.217265   3.058501
    27  H    7.293125   6.324629   7.411740   4.434474   2.476913
    28  H    7.805289   6.610695   7.970264   4.861729   2.466983
    29  H    5.546515   4.353412   6.026975   3.290561   3.061429
    30  H    5.174599   3.593039   5.157700   4.428274   2.526750
    31  H    6.768607   5.290347   6.852645   4.921720   2.441739
                   26         27         28         29         30
    26  H    0.000000
    27  H    1.770600   0.000000
    28  H    1.778105   1.771082   0.000000
    29  H    2.616490   3.800708   3.075444   0.000000
    30  H    3.822564   4.354050   3.769893   1.776150   0.000000
    31  H    3.181079   3.763713   2.541895   1.768540   1.766920
                   31
    31  H    0.000000
 Stoichiometry    C10H20O
 Framework group  C1[X(C10H20O)]
 Deg. of freedom    87
 Full point group                 C1      NOp   1
 Largest Abelian subgroup         C1      NOp   1
 Largest concise Abelian subgroup C1      NOp   1
                         Standard orientation:                         
 ---------------------------------------------------------------------
 Center     Atomic      Atomic             Coordinates (Angstroms)
 Number     Number       Type             X           Y           Z
 ---------------------------------------------------------------------
      1          6           0        2.424880    0.100802   -0.282168
      2          6           0        0.017593    0.925348    0.150430
      3          6           0        0.424311   -1.505048   -0.315190
      4          6           0       -0.574727   -0.339169   -0.491906
      5          6           0        1.818730   -1.186398   -0.876923
      6          6           0        1.406045    1.250076   -0.423651
      7          6           0        2.914105   -0.089226    1.164006
      8          8           0       -0.880432    2.017381   -0.080352
      9          6           0       -1.998692   -0.733434    0.005270
     10          6           0       -3.118022    0.021725   -0.730864
     11          6           0       -2.178045   -0.611531    1.527704
     12          1           0        3.305986    0.366379   -0.883353
     13          1           0        0.108183    0.755794    1.235273
     14          1           0        0.024366   -2.395064   -0.817550
     15          1           0        0.498838   -1.768043    0.749500
     16          1           0       -0.651750   -0.133684   -1.571227
     17          1           0        1.737647   -1.066208   -1.966873
     18          1           0        2.496092   -2.034062   -0.707600
     19          1           0        1.272859    1.496042   -1.486112
     20          1           0        1.795279    2.158020    0.062809
     21          1           0        3.356860    0.836281    1.551919
     22          1           0        2.108137   -0.378987    1.847183
     23          1           0        3.681593   -0.870978    1.212969
     24          1           0       -0.477743    2.809924    0.308454
     25          1           0       -2.114571   -1.798561   -0.248639
     26          1           0       -3.067928    1.094196   -0.527017
     27          1           0       -3.041035   -0.119313   -1.816085
     28          1           0       -4.102658   -0.347635   -0.416958
     29          1           0       -2.167831    0.438480    1.840657
     30          1           0       -1.394976   -1.142260    2.082866
     31          1           0       -3.140952   -1.038240    1.832357
 ---------------------------------------------------------------------
 Rotational constants (GHZ):      1.7310932      0.7312662      0.6496954
 Standard basis: 6-31+G(d,p) (6D, 7F)
 There are   309 symmetry adapted basis functions of A   symmetry.
 Integral buffers will be    131072 words long.
 Raffenetti 2 integral format.
 Two-electron integral symmetry is turned on.
   309 basis functions,   492 primitive gaussians,   309 cartesian basis functions
    44 alpha electrons       44 beta electrons
       nuclear repulsion energy       696.4305267425 Hartrees.
 NAtoms=   31 NActive=   31 NUniq=   31 SFac= 1.00D+00 NAtFMM=   60 NAOKFM=F Big=F
 ------------------------------------------------------------------------------
 Polarizable Continuum Model (PCM)
 =================================
 Model                : PCM.
 Atomic radii         : UFF (Universal Force Field).
 Polarization charges : Total charges.
 Charge compensation  : None.
 Solution method      : Matrix inversion.
 Cavity type          : Scaled VdW (van der Waals Surface) (Alpha=1.100).
 Cavity algorithm     : GePol (No added spheres)
                        Default sphere list used, NSphG=   31.
                        Lebedev-Laikov grids with approx.  5.0 points / Ang**2.
                        Smoothing algorithm: Karplus/York (Gamma=1.0000).
                        Polarization charges: spherical gaussians, with
                                              point-specific exponents (IZeta= 3).
                        Self-potential: point-specific (ISelfS= 7).
                        Self-field    : sphere-specific E.n sum rule (ISelfD= 2).
 Solvent              : Benzene, Eps=   2.270600 Eps(inf)=   2.253301
 ------------------------------------------------------------------------------
 One-electron integrals computed using PRISM.
 NBasis=   309 RedAO= T  NBF=   309
 NBsUse=   309 1.00D-06 NBFU=   309
 Harris functional with IExCor=  908 diagonalized for initial guess.
 ExpMin= 4.38D-02 ExpMax= 5.48D+03 ExpMxC= 8.25D+02 IAcc=2 IRadAn=         4 AccDes= 0.00D+00
 HarFok:  IExCor=  908 AccDes= 0.00D+00 IRadAn=         4 IDoV= 1
 ScaDFX=  1.000000  1.000000  1.000000  1.000000
 FoFCou: FMM=F IPFlag=           0 FMFlag=      100000 FMFlg1=           0
         NFxFlg=           0 DoJE=T BraDBF=F KetDBF=T FulRan=T
         Omega=  0.000000  0.000000  1.000000  0.000000  0.000000 ICntrl=     500 IOpCl=  0
         NMat0=    1 NMatS0=    1 NMatT0=    0 NMatD0=    1 NMtDS0=    0 NMtDT0=    0
         I1Cent=           4 NGrid=           0.
 Petite list used in FoFCou.
 Initial guess orbital symmetries:
       Occupied  (A) (A) (A) (A) (A) (A) (A) (A) (A) (A) (A) (A)
                 (A) (A) (A) (A) (A) (A) (A) (A) (A) (A) (A) (A)
                 (A) (A) (A) (A) (A) (A) (A) (A) (A) (A) (A) (A)
                 (A) (A) (A) (A) (A) (A) (A) (A)
       Virtual   (A) (A) (A) (A) (A) (A) (A) (A) (A) (A) (A) (A)
                 (A) (A) (A) (A) (A) (A) (A) (A) (A) (A) (A) (A)
                 (A) (A) (A) (A) (A) (A) (A) (A) (A) (A) (A) (A)
                 (A) (A) (A) (A) (A) (A) (A) (A) (A) (A) (A) (A)
                 (A) (A) (A) (A) (A) (A) (A) (A) (A) (A) (A) (A)
                 (A) (A) (A) (A) (A) (A) (A) (A) (A) (A) (A) (A)
                 (A) (A) (A) (A) (A) (A) (A) (A) (A) (A) (A) (A)
                 (A) (A) (A) (A) (A) (A) (A) (A) (A) (A) (A) (A)
                 (A) (A) (A) (A) (A) (A) (A) (A) (A) (A) (A) (A)
                 (A) (A) (A) (A) (A) (A) (A) (A) (A) (A) (A) (A)
                 (A) (A) (A) (A) (A) (A) (A) (A) (A) (A) (A) (A)
                 (A) (A) (A) (A) (A) (A) (A) (A) (A) (A) (A) (A)
                 (A) (A) (A) (A) (A) (A) (A) (A) (A) (A) (A) (A)
                 (A) (A) (A) (A) (A) (A) (A) (A) (A) (A) (A) (A)
                 (A) (A) (A) (A) (A) (A) (A) (A) (A) (A) (A) (A)
                 (A) (A) (A) (A) (A) (A) (A) (A) (A) (A) (A) (A)
                 (A) (A) (A) (A) (A) (A) (A) (A) (A) (A) (A) (A)
                 (A) (A) (A) (A) (A) (A) (A) (A) (A) (A) (A) (A)
                 (A) (A) (A) (A) (A) (A) (A) (A) (A) (A) (A) (A)
                 (A) (A) (A) (A) (A) (A) (A) (A) (A) (A) (A) (A)
                 (A) (A) (A) (A) (A) (A) (A) (A) (A) (A) (A) (A)
                 (A) (A) (A) (A) (A) (A) (A) (A) (A) (A) (A) (A)
                 (A)
 The electronic state of the initial guess is 1-A.
 Requested convergence on RMS density matrix=1.00D-08 within 128 cycles.
 Requested convergence on MAX density matrix=1.00D-06.
 Requested convergence on             energy=1.00D-06.
 No special actions if energy rises.
 Error on total polarization charges =  0.00936
 SCF Done:  E(RmPW1PW91) =  -468.280732414     A.U. after   12 cycles
             Convg  =    0.7126D-08             -V/T =  2.0099
 Range of M.O.s used for correlation:     1   309
 NBasis=   309 NAE=    44 NBE=    44 NFC=     0 NFV=     0
 NROrb=    309 NOA=    44 NOB=    44 NVA=   265 NVB=   265

 **** Warning!!: The largest alpha MO coefficient is  0.71330300D+02

 NEqPCM:  Using equilibrium solvation (IEInf=0, Eps=   2.2706, EpsInf=   2.2533)
          Differentiating once with respect to magnetic field using GIAOs.
          Electric field/nuclear overlap derivatives assumed to be zero.
 FoFCou: FMM=F IPFlag=           0 FMFlag=    10101102 FMFlg1=           0
         NFxFlg=    40000000 DoJE=F BraDBF=F KetDBF=T FulRan=T
         Omega=  0.000000  0.000000  1.000000  0.000000  0.000000 ICntrl=    6100 IOpCl=  0
         NMat0=    1 NMatS0=    1 NMatT0=    0 NMatD0=    1 NMtDS0=    0 NMtDT0=    0
         I1Cent=           7 NGrid=        1911.
 Symmetry not used in FoFCou.
          There are     3 degrees of freedom in the 1st order CPHF.  IDoFFX=0.
      3 vectors produced by pass  0 Test12= 3.89D-13 3.33D-08 XBig12= 3.91D+01 1.52D+00.
 AX will form     3 AO Fock derivatives at one time.
      3 vectors produced by pass  1 Test12= 3.89D-13 3.33D-08 XBig12= 9.01D-02 5.78D-02.
      3 vectors produced by pass  2 Test12= 3.89D-13 3.33D-08 XBig12= 2.38D-04 3.76D-03.
      3 vectors produced by pass  3 Test12= 3.89D-13 3.33D-08 XBig12= 7.64D-07 1.34D-04.
      3 vectors produced by pass  4 Test12= 3.89D-13 3.33D-08 XBig12= 1.81D-09 6.96D-06.
      3 vectors produced by pass  5 Test12= 3.89D-13 3.33D-08 XBig12= 3.42D-12 3.29D-07.
 Inverted reduced A of dimension    18 with in-core refinement.
 Calculating GIAO nuclear magnetic shielding tensors.
 SCF GIAO Magnetic shielding tensor (ppm):
      1  C    Isotropic =   163.5680   Anisotropy =     4.1599
   XX=   164.8678   YX=    -0.0738   ZX=     1.3987
   XY=     1.3811   YY=   165.8655   ZY=    -0.2870
   XZ=     0.8042   YZ=     1.3403   ZZ=   159.9707
   Eigenvalues:   159.7108   164.6519   166.3413
      2  C    Isotropic =   126.5966   Anisotropy =    59.8944
   XX=   128.0476   YX=   -18.7543   ZX=     5.5708
   XY=   -25.6259   YY=   151.2079   ZY=    -6.9139
   XZ=     8.0311   YZ=   -10.8053   ZZ=   100.5342
   Eigenvalues:    98.5757   114.6879   166.5262
      3  C    Isotropic =   166.7892   Anisotropy =    27.7904
   XX=   180.7202   YX=    -4.9050   ZX=    -6.2977
   XY=    -7.5362   YY=   175.7817   ZY=     1.9429
   XZ=    -0.5143   YZ=     2.0128   ZZ=   143.8656
   Eigenvalues:   143.4905   171.5609   185.3161
      4  C    Isotropic =   145.8127   Anisotropy =    12.5164
   XX=   149.1520   YX=     4.3451   ZX=    -1.9972
   XY=     0.9180   YY=   138.8943   ZY=    -2.3313
   XZ=    -4.5765   YZ=    -6.2420   ZZ=   149.3917
   Eigenvalues:   137.1913   146.0898   154.1569
      5  C    Isotropic =   162.6278   Anisotropy =    11.8691
   XX=   163.2964   YX=     3.1636   ZX=     4.1263
   XY=     3.2490   YY=   164.6504   ZY=     7.7761
   XZ=     3.3557   YZ=     1.3658   ZZ=   159.9366
   Eigenvalues:   156.6464   160.6965   170.5405
      6  C    Isotropic =   151.3185   Anisotropy =    26.7434
   XX=   166.1354   YX=   -12.4220   ZX=     0.5733
   XY=    -2.8523   YY=   149.6309   ZY=    -7.6266
   XZ=    -5.4715   YZ=    -0.5994   ZZ=   138.1891
   Eigenvalues:   136.0618   148.7462   169.1474
      7  C    Isotropic =   176.4873   Anisotropy =    30.2106
   XX=   166.2666   YX=    -5.8761   ZX=    15.2253
   XY=    -6.6567   YY=   176.8091   ZY=    -0.1077
   XZ=    19.0946   YZ=     0.8491   ZZ=   186.3862
   Eigenvalues:   154.9751   177.8591   196.6277
      8  O    Isotropic =   276.1124   Anisotropy =    74.0315
   XX=   269.4586   YX=    16.6899   ZX=     4.9945
   XY=    -3.5348   YY=   317.1320   ZY=    20.2694
   XZ=     7.9827   YZ=    28.3037   ZZ=   241.7468
   Eigenvalues:   234.0498   268.8208   325.4668
      9  C    Isotropic =   158.2136   Anisotropy =    23.2690
   XX=   172.0512   YX=     3.2237   ZX=    -3.1372
   XY=     3.3586   YY=   157.5294   ZY=    -0.3001
   XZ=    -7.8780   YZ=     1.6742   ZZ=   145.0600
   Eigenvalues:   143.8514   157.0631   173.7262
     10  C    Isotropic =   170.4587   Anisotropy =    36.7507
   XX=   184.1845   YX=    -8.9100   ZX=    12.1857
   XY=   -12.8185   YY=   156.5206   ZY=   -10.8566
   XZ=     8.2290   YZ=    -8.6476   ZZ=   170.6710
   Eigenvalues:   150.5616   165.8554   194.9592
     11  C    Isotropic =   178.5264   Anisotropy =    23.7306
   XX=   172.4793   YX=    -0.3492   ZX=    -2.8117
   XY=    -1.4890   YY=   168.7716   ZY=     1.1363
   XZ=     1.5409   YZ=    -1.1798   ZZ=   194.3284
   Eigenvalues:   168.5552   172.6773   194.3468
     12  H    Isotropic =    29.6499   Anisotropy =    10.0550
   XX=    33.6089   YX=     1.9339   ZX=    -3.7778
   XY=     2.0300   YY=    26.1198   ZY=    -1.2333
   XZ=    -3.8516   YZ=    -1.2829   ZZ=    29.2210
   Eigenvalues:    25.5760    27.0205    36.3533
     13  H    Isotropic =    27.6083   Anisotropy =     3.3557
   XX=    29.5345   YX=    -1.2599   ZX=     0.5510
   XY=    -0.9672   YY=    25.7080   ZY=    -1.3256
   XZ=    -0.5775   YZ=     0.0670   ZZ=    27.5824
   Eigenvalues:    25.2473    27.7322    29.8454
     14  H    Isotropic =    30.3941   Anisotropy =     9.1449
   XX=    30.4014   YX=     1.3169   ZX=     0.0308
   XY=     2.1093   YY=    34.6710   ZY=     4.0656
   XZ=    -0.5773   YZ=     3.5366   ZZ=    26.1098
   Eigenvalues:    24.5342    30.1574    36.4907
     15  H    Isotropic =    29.9878   Anisotropy =     4.9778
   XX=    30.7578   YX=    -0.8273   ZX=    -0.6539
   XY=    -0.1003   YY=    28.7749   ZY=    -4.0592
   XZ=    -0.2103   YZ=    -3.1584   ZZ=    30.4308
   Eigenvalues:    25.8194    30.8377    33.3064
     16  H    Isotropic =    30.2531   Anisotropy =     3.9309
   XX=    31.8915   YX=    -0.4695   ZX=     0.4129
   XY=    -0.1132   YY=    26.5081   ZY=    -0.4026
   XZ=     0.8812   YZ=    -0.6981   ZZ=    32.3597
   Eigenvalues:    26.4469    31.4387    32.8737
     17  H    Isotropic =    29.9887   Anisotropy =     8.9576
   XX=    28.2211   YX=     0.4194   ZX=    -2.1447
   XY=     0.4591   YY=    26.8217   ZY=     2.9696
   XZ=    -1.4607   YZ=     1.9786   ZZ=    34.9233
   Eigenvalues:    25.7499    28.2558    35.9605
     18  H    Isotropic =    30.1701   Anisotropy =     9.8116
   XX=    31.9389   YX=    -4.0613   ZX=    -0.6253
   XY=    -4.3493   YY=    32.6296   ZY=     1.4554
   XZ=    -0.4221   YZ=     1.6345   ZZ=    25.9417
   Eigenvalues:    25.5634    28.2356    36.7112
     19  H    Isotropic =    30.0165   Anisotropy =     6.4024
   XX=    28.8032   YX=     0.2271   ZX=    -0.6865
   XY=    -0.5421   YY=    29.8074   ZY=    -4.0842
   XZ=    -0.5885   YZ=    -2.9945   ZZ=    31.4389
   Eigenvalues:    26.8509    28.9139    34.2848
     20  H    Isotropic =    30.1676   Anisotropy =     6.8340
   XX=    30.4374   YX=     1.9108   ZX=     0.7721
   XY=     1.8158   YY=    33.5927   ZY=     1.6319
   XZ=     1.3706   YZ=     0.6381   ZZ=    26.4728
   Eigenvalues:    26.1382    29.6411    34.7236
     21  H    Isotropic =    30.7291   Anisotropy =    10.1582
   XX=    30.4542   YX=     3.0610   ZX=     3.9921
   XY=     2.8133   YY=    31.3244   ZY=     2.3967
   XZ=     4.1529   YZ=     3.8977   ZZ=    30.4087
   Eigenvalues:    26.3493    28.3367    37.5012
     22  H    Isotropic =    30.2290   Anisotropy =     5.4317
   XX=    31.4194   YX=     0.8414   ZX=     0.3411
   XY=     1.0232   YY=    25.9800   ZY=    -1.7422
   XZ=    -1.0412   YZ=    -1.9124   ZZ=    33.2875
   Eigenvalues:    25.4336    31.4032    33.8501
     23  H    Isotropic =    30.7811   Anisotropy =    11.0237
   XX=    33.4355   YX=    -4.4986   ZX=     3.1262
   XY=    -4.7784   YY=    30.2108   ZY=    -0.7168
   XZ=     3.7822   YZ=    -2.0479   ZZ=    28.6969
   Eigenvalues:    26.2649    27.9481    38.1302
     24  H    Isotropic =    31.2182   Anisotropy =    18.5151
   XX=    27.7539   YX=     1.5644   ZX=     2.6748
   XY=     2.5374   YY=    41.2964   ZY=     6.2928
   XZ=     2.5136   YZ=     5.2071   ZZ=    24.6042
   Eigenvalues:    22.1505    27.9425    43.5616
     25  H    Isotropic =    30.1395   Anisotropy =     6.5274
   XX=    29.9622   YX=     1.3346   ZX=     0.5235
   XY=     0.9382   YY=    33.6067   ZY=     2.2740
   XZ=     0.3277   YZ=     1.7810   ZZ=    26.8497
   Eigenvalues:    26.2847    29.6428    34.4911
     26  H    Isotropic =    29.7630   Anisotropy =     5.7408
   XX=    30.9325   YX=    -1.0929   ZX=     1.6415
   XY=    -0.5489   YY=    33.2189   ZY=    -0.0620
   XZ=     2.0946   YZ=    -0.6180   ZZ=    25.1377
   Eigenvalues:    24.5867    31.1122    33.5903
     27  H    Isotropic =    30.5364   Anisotropy =     9.4238
   XX=    29.9825   YX=    -0.4323   ZX=     3.8917
   XY=    -0.1696   YY=    26.2725   ZY=    -0.4783
   XZ=     2.4344   YZ=     0.5298   ZZ=    35.3543
   Eigenvalues:    26.2362    28.5541    36.8190
     28  H    Isotropic =    30.7578   Anisotropy =    11.0739
   XX=    37.9448   YX=     1.9742   ZX=     0.1210
   XY=     0.8616   YY=    26.6895   ZY=    -0.6631
   XZ=     0.9915   YZ=    -0.9419   ZZ=    27.6390
   Eigenvalues:    26.0406    28.0923    38.1404
     29  H    Isotropic =    30.5044   Anisotropy =     6.9105
   XX=    28.1030   YX=     0.4942   ZX=    -2.0992
   XY=     0.5935   YY=    32.2284   ZY=     2.8509
   XZ=    -2.2544   YZ=     3.5673   ZZ=    31.1818
   Eigenvalues:    26.1977    30.2041    35.1114
     30  H    Isotropic =    30.5246   Anisotropy =     8.3027
   XX=    30.7315   YX=    -2.1473   ZX=     0.6705
   XY=    -1.8588   YY=    27.4143   ZY=    -3.6265
   XZ=     1.9365   YZ=    -3.9385   ZZ=    33.4280
   Eigenvalues:    25.2845    30.2295    36.0597
     31  H    Isotropic =    30.7648   Anisotropy =    10.8410
   XX=    33.5061   YX=     3.3328   ZX=    -3.6642
   XY=     3.1338   YY=    27.7243   ZY=    -2.2010
   XZ=    -4.4299   YZ=    -2.1655   ZZ=    31.0641
   Eigenvalues:    26.2302    28.0722    37.9921
 End of Minotr Frequency-dependent properties file   721 does not exist.
 End of Minotr Frequency-dependent properties file   722 does not exist.

 **********************************************************************

            Population analysis using the SCF density.

 **********************************************************************

 Orbital symmetries:
       Occupied  (A) (A) (A) (A) (A) (A) (A) (A) (A) (A) (A) (A)
                 (A) (A) (A) (A) (A) (A) (A) (A) (A) (A) (A) (A)
                 (A) (A) (A) (A) (A) (A) (A) (A) (A) (A) (A) (A)
                 (A) (A) (A) (A) (A) (A) (A) (A)
       Virtual   (A) (A) (A) (A) (A) (A) (A) (A) (A) (A) (A) (A)
                 (A) (A) (A) (A) (A) (A) (A) (A) (A) (A) (A) (A)
                 (A) (A) (A) (A) (A) (A) (A) (A) (A) (A) (A) (A)
                 (A) (A) (A) (A) (A) (A) (A) (A) (A) (A) (A) (A)
                 (A) (A) (A) (A) (A) (A) (A) (A) (A) (A) (A) (A)
                 (A) (A) (A) (A) (A) (A) (A) (A) (A) (A) (A) (A)
                 (A) (A) (A) (A) (A) (A) (A) (A) (A) (A) (A) (A)
                 (A) (A) (A) (A) (A) (A) (A) (A) (A) (A) (A) (A)
                 (A) (A) (A) (A) (A) (A) (A) (A) (A) (A) (A) (A)
                 (A) (A) (A) (A) (A) (A) (A) (A) (A) (A) (A) (A)
                 (A) (A) (A) (A) (A) (A) (A) (A) (A) (A) (A) (A)
                 (A) (A) (A) (A) (A) (A) (A) (A) (A) (A) (A) (A)
                 (A) (A) (A) (A) (A) (A) (A) (A) (A) (A) (A) (A)
                 (A) (A) (A) (A) (A) (A) (A) (A) (A) (A) (A) (A)
                 (A) (A) (A) (A) (A) (A) (A) (A) (A) (A) (A) (A)
                 (A) (A) (A) (A) (A) (A) (A) (A) (A) (A) (A) (A)
                 (A) (A) (A) (A) (A) (A) (A) (A) (A) (A) (A) (A)
                 (A) (A) (A) (A) (A) (A) (A) (A) (A) (A) (A) (A)
                 (A) (A) (A) (A) (A) (A) (A) (A) (A) (A) (A) (A)
                 (A) (A) (A) (A) (A) (A) (A) (A) (A) (A) (A) (A)
                 (A) (A) (A) (A) (A) (A) (A) (A) (A) (A) (A) (A)
                 (A) (A) (A) (A) (A) (A) (A) (A) (A) (A) (A) (A)
                 (A)
 The electronic state is 1-A.
 Alpha  occ. eigenvalues --  -19.24445 -10.29340 -10.25323 -10.24619 -10.24523
 Alpha  occ. eigenvalues --  -10.24148 -10.24087 -10.24056 -10.23533 -10.22783
 Alpha  occ. eigenvalues --  -10.22036  -1.04971  -0.86066  -0.81856  -0.76339
 Alpha  occ. eigenvalues --   -0.75223  -0.69868  -0.69469  -0.63405  -0.62427
 Alpha  occ. eigenvalues --   -0.56736  -0.55176  -0.52538  -0.48448  -0.47317
 Alpha  occ. eigenvalues --   -0.46001  -0.45103  -0.44167  -0.42251  -0.40611
 Alpha  occ. eigenvalues --   -0.40314  -0.39542  -0.39099  -0.38245  -0.37362
 Alpha  occ. eigenvalues --   -0.36070  -0.35350  -0.34443  -0.33278  -0.32286
 Alpha  occ. eigenvalues --   -0.31961  -0.31202  -0.30035  -0.27857
 Alpha virt. eigenvalues --    0.00679   0.01444   0.01837   0.02408   0.03769
 Alpha virt. eigenvalues --    0.04380   0.04546   0.05000   0.05838   0.06518
 Alpha virt. eigenvalues --    0.07131   0.07862   0.08206   0.08658   0.09014
 Alpha virt. eigenvalues --    0.09285   0.10228   0.10825   0.11544   0.11941
 Alpha virt. eigenvalues --    0.12337   0.12790   0.13770   0.13922   0.14692
 Alpha virt. eigenvalues --    0.15663   0.16142   0.16502   0.16738   0.17095
 Alpha virt. eigenvalues --    0.17430   0.18483   0.18861   0.19076   0.19872
 Alpha virt. eigenvalues --    0.20479   0.21049   0.21405   0.21985   0.22535
 Alpha virt. eigenvalues --    0.23161   0.23236   0.23657   0.23878   0.24301
 Alpha virt. eigenvalues --    0.25079   0.25360   0.26210   0.26850   0.27352
 Alpha virt. eigenvalues --    0.27733   0.28557   0.29080   0.29901   0.30427
 Alpha virt. eigenvalues --    0.31135   0.31932   0.32376   0.33676   0.33766
 Alpha virt. eigenvalues --    0.33986   0.34765   0.35135   0.36615   0.36922
 Alpha virt. eigenvalues --    0.37806   0.38915   0.39769   0.40855   0.42404
 Alpha virt. eigenvalues --    0.43247   0.45327   0.46283   0.49321   0.54245
 Alpha virt. eigenvalues --    0.62288   0.63806   0.65275   0.66107   0.66815
 Alpha virt. eigenvalues --    0.68190   0.69402   0.70769   0.71819   0.72267
 Alpha virt. eigenvalues --    0.72656   0.74465   0.76346   0.76841   0.77685
 Alpha virt. eigenvalues --    0.77898   0.80304   0.81051   0.82146   0.83291
 Alpha virt. eigenvalues --    0.85462   0.86863   0.89322   0.90553   0.92957
 Alpha virt. eigenvalues --    0.95070   0.97629   0.97901   0.99071   0.99873
 Alpha virt. eigenvalues --    1.01266   1.01715   1.02489   1.03919   1.05197
 Alpha virt. eigenvalues --    1.05534   1.07871   1.09549   1.11864   1.12586
 Alpha virt. eigenvalues --    1.13532   1.14073   1.14699   1.15391   1.16658
 Alpha virt. eigenvalues --    1.17585   1.18415   1.20278   1.21123   1.22098
 Alpha virt. eigenvalues --    1.24243   1.26294   1.27009   1.29996   1.33833
 Alpha virt. eigenvalues --    1.36202   1.37820   1.39668   1.41832   1.44294
 Alpha virt. eigenvalues --    1.47522   1.50780   1.53850   1.55781   1.58245
 Alpha virt. eigenvalues --    1.59270   1.61313   1.63611   1.64809   1.68983
 Alpha virt. eigenvalues --    1.71344   1.73345   1.77199   1.78396   1.80432
 Alpha virt. eigenvalues --    1.82189   1.85242   1.85402   1.87523   1.87797
 Alpha virt. eigenvalues --    1.88588   1.89521   1.91112   1.93409   1.94137
 Alpha virt. eigenvalues --    1.95277   1.96398   1.98836   2.00442   2.04167
 Alpha virt. eigenvalues --    2.05009   2.06281   2.07295   2.08121   2.09437
 Alpha virt. eigenvalues --    2.10897   2.12268   2.13435   2.14567   2.16103
 Alpha virt. eigenvalues --    2.16775   2.17387   2.18438   2.19142   2.19830
 Alpha virt. eigenvalues --    2.21082   2.21687   2.24216   2.27379   2.30081
 Alpha virt. eigenvalues --    2.32687   2.32905   2.35837   2.37727   2.38771
 Alpha virt. eigenvalues --    2.39726   2.40914   2.41525   2.42652   2.45358
 Alpha virt. eigenvalues --    2.48648   2.49314   2.51677   2.53291   2.56672
 Alpha virt. eigenvalues --    2.59164   2.59553   2.61939   2.63759   2.64883
 Alpha virt. eigenvalues --    2.66496   2.68664   2.70069   2.70789   2.72944
 Alpha virt. eigenvalues --    2.73494   2.73868   2.76321   2.77426   2.78458
 Alpha virt. eigenvalues --    2.80416   2.81376   2.83016   2.84266   2.87076
 Alpha virt. eigenvalues --    2.87947   2.89791   2.90665   2.92314   2.92867
 Alpha virt. eigenvalues --    2.93345   2.94650   2.96387   2.96617   2.98614
 Alpha virt. eigenvalues --    2.98969   3.05161   3.07600   3.13886   3.29517
 Alpha virt. eigenvalues --    3.30735   3.31780   3.36145   3.36899   3.37948
 Alpha virt. eigenvalues --    3.41625   3.42802   3.46780   3.49081   3.50424
 Alpha virt. eigenvalues --    3.51694   3.53108   3.54330   3.55155   3.56342
 Alpha virt. eigenvalues --    3.57983   3.59157   3.60732   3.64310   4.37042
 Alpha virt. eigenvalues --    4.45261   4.51039   4.52954   4.55167   4.65951
 Alpha virt. eigenvalues --    4.67025   4.76687   4.82673   4.87482   4.89925
          Condensed to atoms (all electrons):
              1          2          3          4          5          6
     1  C    6.425473  -0.476553  -0.321863   0.211645  -0.056685  -0.270554
     2  C   -0.476553   7.200826  -0.163031  -0.925430   0.025946  -0.219869
     3  C   -0.321863  -0.163031   6.909713  -1.106826  -0.233392   0.275723
     4  C    0.211645  -0.925430  -1.106826   8.854737  -0.012987  -0.352487
     5  C   -0.056685   0.025946  -0.233392  -0.012987   6.297903   0.131738
     6  C   -0.270554  -0.219869   0.275723  -0.352487   0.131738   6.436385
     7  C    0.189335   0.024724  -0.077286   0.054070  -0.072160  -0.089900
     8  O   -0.004044   0.252759   0.068301  -0.271007   0.013604  -0.016033
     9  C    0.012009   0.156814   0.507426  -1.183128  -0.146968   0.076610
    10  C    0.017165  -0.026326  -0.095620   0.239621  -0.071020  -0.055955
    11  C    0.025803  -0.095429  -0.027154   0.121857   0.006913  -0.033722
    12  H    0.247929   0.046349   0.039214  -0.013245  -0.015917   0.007463
    13  H    0.058997   0.397832   0.005090  -0.067785  -0.036376  -0.070974
    14  H    0.040700   0.034233   0.296206  -0.052091   0.041597  -0.007048
    15  H    0.030882   0.013561   0.411165  -0.043904  -0.101869  -0.042574
    16  H    0.031592   0.038553  -0.013967   0.317950  -0.060553  -0.066739
    17  H    0.022589  -0.004180  -0.056543   0.046180   0.343695  -0.053056
    18  H   -0.100711  -0.012919  -0.074277   0.041778   0.428180   0.043880
    19  H    0.037334  -0.076406  -0.000320   0.036294  -0.058927   0.363170
    20  H   -0.076665  -0.046553  -0.023103   0.023944   0.040754   0.408205
    21  H   -0.092280   0.002574  -0.009857  -0.005772   0.034121   0.005992
    22  H   -0.075252   0.026947  -0.003961   0.012241  -0.009891  -0.017237
    23  H   -0.094072  -0.012486   0.009114  -0.005496   0.002497   0.032695
    24  H    0.007988   0.002649  -0.019860   0.080890   0.002835  -0.048675
    25  H    0.004479  -0.003621   0.008588  -0.077569  -0.001285  -0.009133
    26  H    0.000982  -0.006350   0.000746   0.000980  -0.001092  -0.002279
    27  H   -0.000484   0.020546  -0.009988   0.001496  -0.002217  -0.002648
    28  H   -0.000147   0.003179  -0.004264   0.036601   0.000143   0.000087
    29  H    0.001043  -0.003477  -0.000358   0.011266  -0.000108  -0.005287
    30  H   -0.003747  -0.017850   0.006919  -0.008595   0.006167   0.010536
    31  H    0.000008  -0.005094   0.006279   0.030908   0.000308  -0.000006
              7          8          9         10         11         12
     1  C    0.189335  -0.004044   0.012009   0.017165   0.025803   0.247929
     2  C    0.024724   0.252759   0.156814  -0.026326  -0.095429   0.046349
     3  C   -0.077286   0.068301   0.507426  -0.095620  -0.027154   0.039214
     4  C    0.054070  -0.271007  -1.183128   0.239621   0.121857  -0.013245
     5  C   -0.072160   0.013604  -0.146968  -0.071020   0.006913  -0.015917
     6  C   -0.089900  -0.016033   0.076610  -0.055955  -0.033722   0.007463
     7  C    5.363959  -0.004204  -0.006104   0.000486  -0.001423  -0.021654
     8  O   -0.004204   8.316994   0.055988  -0.027376  -0.029984  -0.000776
     9  C   -0.006104   0.055988   7.018679  -0.360405  -0.093994  -0.000130
    10  C    0.000486  -0.027376  -0.360405   5.695362  -0.033765   0.000148
    11  C   -0.001423  -0.029984  -0.093994  -0.033765   5.466956   0.000059
    12  H   -0.021654  -0.000776  -0.000130   0.000148   0.000059   0.574595
    13  H    0.013381  -0.048517  -0.016259   0.007291   0.008805  -0.000230
    14  H   -0.000040  -0.000438  -0.020031  -0.012334   0.006405  -0.000130
    15  H    0.010949  -0.000105   0.031606   0.007101  -0.006178  -0.000088
    16  H    0.003059   0.000430  -0.008221   0.026547   0.002138  -0.000097
    17  H    0.013210  -0.000111   0.005903   0.002266  -0.000325  -0.006053
    18  H    0.004037   0.000099  -0.007171   0.000313  -0.000660  -0.001718
    19  H    0.011996   0.000703   0.003220   0.002772   0.000965  -0.006060
    20  H    0.003928  -0.012047  -0.002131  -0.000990   0.000722  -0.002321
    21  H    0.423001  -0.000048  -0.000218  -0.000150  -0.000089  -0.003663
    22  H    0.423453  -0.000325  -0.002810   0.000177   0.001509   0.004808
    23  H    0.425981   0.000028  -0.000006  -0.000021  -0.000244  -0.004063
    24  H    0.000359   0.212531  -0.018261   0.000957   0.007399  -0.000008
    25  H   -0.000082   0.000151   0.327289  -0.015916   0.031651   0.000000
    26  H    0.000065  -0.006867  -0.111295   0.474805   0.003949   0.000000
    27  H    0.000034   0.000086  -0.107339   0.454266   0.003759   0.000000
    28  H   -0.000012   0.000880  -0.130041   0.445647   0.001752   0.000000
    29  H   -0.000386   0.002645  -0.134344   0.001937   0.477380   0.000000
    30  H    0.000924   0.000100  -0.024291  -0.007157   0.394718   0.000000
    31  H   -0.000100   0.000300  -0.103802  -0.003328   0.432703   0.000000
             13         14         15         16         17         18
     1  C    0.058997   0.040700   0.030882   0.031592   0.022589  -0.100711
     2  C    0.397832   0.034233   0.013561   0.038553  -0.004180  -0.012919
     3  C    0.005090   0.296206   0.411165  -0.013967  -0.056543  -0.074277
     4  C   -0.067785  -0.052091  -0.043904   0.317950   0.046180   0.041778
     5  C   -0.036376   0.041597  -0.101869  -0.060553   0.343695   0.428180
     6  C   -0.070974  -0.007048  -0.042574  -0.066739  -0.053056   0.043880
     7  C    0.013381  -0.000040   0.010949   0.003059   0.013210   0.004037
     8  O   -0.048517  -0.000438  -0.000105   0.000430  -0.000111   0.000099
     9  C   -0.016259  -0.020031   0.031606  -0.008221   0.005903  -0.007171
    10  C    0.007291  -0.012334   0.007101   0.026547   0.002266   0.000313
    11  C    0.008805   0.006405  -0.006178   0.002138  -0.000325  -0.000660
    12  H   -0.000230  -0.000130  -0.000088  -0.000097  -0.006053  -0.001718
    13  H    0.604079  -0.000059   0.002171   0.005065   0.000064   0.000009
    14  H   -0.000059   0.550335  -0.029756  -0.004446  -0.004899  -0.002507
    15  H    0.002171  -0.029756   0.548765   0.004741   0.004564  -0.003407
    16  H    0.005065  -0.004446   0.004741   0.559980   0.002794   0.000038
    17  H    0.000064  -0.004899   0.004564   0.002794   0.545469  -0.027361
    18  H    0.000009  -0.002507  -0.003407   0.000038  -0.027361   0.552697
    19  H    0.004639  -0.000040   0.000081   0.003097   0.002309  -0.000002
    20  H   -0.006255   0.000011  -0.000010  -0.000030  -0.000046  -0.000137
    21  H    0.000046   0.000002  -0.000035   0.000001  -0.000131   0.000070
    22  H   -0.002718  -0.000032  -0.001242  -0.000039  -0.000080  -0.000086
    23  H    0.000016  -0.000017   0.000171   0.000002   0.000061   0.002935
    24  H   -0.006397   0.000005  -0.000004  -0.000224   0.000000  -0.000001
    25  H    0.000080   0.004172  -0.000563  -0.000821   0.000002  -0.000015
    26  H    0.000073  -0.000001  -0.000005  -0.000193   0.000000   0.000000
    27  H   -0.000010   0.000041   0.000001   0.003290   0.000001   0.000000
    28  H    0.000008  -0.000010   0.000002   0.000221   0.000000   0.000000
    29  H   -0.001196  -0.000002   0.000071   0.000000   0.000000   0.000000
    30  H   -0.000569   0.000111   0.001046  -0.000038  -0.000001   0.000005
    31  H    0.000121  -0.000008  -0.000063  -0.000079   0.000000   0.000000
             19         20         21         22         23         24
     1  C    0.037334  -0.076665  -0.092280  -0.075252  -0.094072   0.007988
     2  C   -0.076406  -0.046553   0.002574   0.026947  -0.012486   0.002649
     3  C   -0.000320  -0.023103  -0.009857  -0.003961   0.009114  -0.019860
     4  C    0.036294   0.023944  -0.005772   0.012241  -0.005496   0.080890
     5  C   -0.058927   0.040754   0.034121  -0.009891   0.002497   0.002835
     6  C    0.363170   0.408205   0.005992  -0.017237   0.032695  -0.048675
     7  C    0.011996   0.003928   0.423001   0.423453   0.425981   0.000359
     8  O    0.000703  -0.012047  -0.000048  -0.000325   0.000028   0.212531
     9  C    0.003220  -0.002131  -0.000218  -0.002810  -0.000006  -0.018261
    10  C    0.002772  -0.000990  -0.000150   0.000177  -0.000021   0.000957
    11  C    0.000965   0.000722  -0.000089   0.001509  -0.000244   0.007399
    12  H   -0.006060  -0.002321  -0.003663   0.004808  -0.004063  -0.000008
    13  H    0.004639  -0.006255   0.000046  -0.002718   0.000016  -0.006397
    14  H   -0.000040   0.000011   0.000002  -0.000032  -0.000017   0.000005
    15  H    0.000081  -0.000010  -0.000035  -0.001242   0.000171  -0.000004
    16  H    0.003097  -0.000030   0.000001  -0.000039   0.000002  -0.000224
    17  H    0.002309  -0.000046  -0.000131  -0.000080   0.000061   0.000000
    18  H   -0.000002  -0.000137   0.000070  -0.000086   0.002935  -0.000001
    19  H    0.527186  -0.029626   0.000044  -0.000114  -0.000118  -0.001073
    20  H   -0.029626   0.563863   0.003137  -0.000036   0.000050   0.005908
    21  H    0.000044   0.003137   0.533082  -0.028093  -0.024597   0.000003
    22  H   -0.000114  -0.000036  -0.028093   0.537233  -0.027853   0.000008
    23  H   -0.000118   0.000050  -0.024597  -0.027853   0.529839   0.000000
    24  H   -0.001073   0.005908   0.000003   0.000008   0.000000   0.409240
    25  H    0.000000   0.000002   0.000000   0.000001   0.000000   0.000007
    26  H    0.000003   0.000002   0.000000   0.000000   0.000000   0.000348
    27  H    0.000001   0.000000   0.000000   0.000000   0.000000  -0.000005
    28  H    0.000000   0.000000   0.000000   0.000000   0.000000  -0.000005
    29  H   -0.000002   0.000005   0.000000  -0.000001   0.000000  -0.000053
    30  H   -0.000001   0.000001   0.000001   0.000040   0.000000  -0.000022
    31  H    0.000000   0.000000   0.000000   0.000000   0.000000  -0.000002
             25         26         27         28         29         30
     1  C    0.004479   0.000982  -0.000484  -0.000147   0.001043  -0.003747
     2  C   -0.003621  -0.006350   0.020546   0.003179  -0.003477  -0.017850
     3  C    0.008588   0.000746  -0.009988  -0.004264  -0.000358   0.006919
     4  C   -0.077569   0.000980   0.001496   0.036601   0.011266  -0.008595
     5  C   -0.001285  -0.001092  -0.002217   0.000143  -0.000108   0.006167
     6  C   -0.009133  -0.002279  -0.002648   0.000087  -0.005287   0.010536
     7  C   -0.000082   0.000065   0.000034  -0.000012  -0.000386   0.000924
     8  O    0.000151  -0.006867   0.000086   0.000880   0.002645   0.000100
     9  C    0.327289  -0.111295  -0.107339  -0.130041  -0.134344  -0.024291
    10  C   -0.015916   0.474805   0.454266   0.445647   0.001937  -0.007157
    11  C    0.031651   0.003949   0.003759   0.001752   0.477380   0.394718
    12  H    0.000000   0.000000   0.000000   0.000000   0.000000   0.000000
    13  H    0.000080   0.000073  -0.000010   0.000008  -0.001196  -0.000569
    14  H    0.004172  -0.000001   0.000041  -0.000010  -0.000002   0.000111
    15  H   -0.000563  -0.000005   0.000001   0.000002   0.000071   0.001046
    16  H   -0.000821  -0.000193   0.003290   0.000221   0.000000  -0.000038
    17  H    0.000002   0.000000   0.000001   0.000000   0.000000  -0.000001
    18  H   -0.000015   0.000000   0.000000   0.000000   0.000000   0.000005
    19  H    0.000000   0.000003   0.000001   0.000000  -0.000002  -0.000001
    20  H    0.000002   0.000002   0.000000   0.000000   0.000005   0.000001
    21  H    0.000000   0.000000   0.000000   0.000000   0.000000   0.000001
    22  H    0.000001   0.000000   0.000000   0.000000  -0.000001   0.000040
    23  H    0.000000   0.000000   0.000000   0.000000   0.000000   0.000000
    24  H    0.000007   0.000348  -0.000005  -0.000005  -0.000053  -0.000022
    25  H    0.597070   0.004940  -0.003750  -0.003883   0.005123  -0.003382
    26  H    0.004940   0.499666  -0.025913  -0.027671   0.003429  -0.000017
    27  H   -0.003750  -0.025913   0.541699  -0.026830   0.000029  -0.000141
    28  H   -0.003883  -0.027671  -0.026830   0.549915  -0.000100   0.000046
    29  H    0.005123   0.003429   0.000029  -0.000100   0.521400  -0.029003
    30  H   -0.003382  -0.000017  -0.000141   0.000046  -0.029003   0.542921
    31  H   -0.003925  -0.000068   0.000054   0.002657  -0.026119  -0.026169
             31
     1  C    0.000008
     2  C   -0.005094
     3  C    0.006279
     4  C    0.030908
     5  C    0.000308
     6  C   -0.000006
     7  C   -0.000100
     8  O    0.000300
     9  C   -0.103802
    10  C   -0.003328
    11  C    0.432703
    12  H    0.000000
    13  H    0.000121
    14  H   -0.000008
    15  H   -0.000063
    16  H   -0.000079
    17  H    0.000000
    18  H    0.000000
    19  H    0.000000
    20  H    0.000000
    21  H    0.000000
    22  H    0.000000
    23  H    0.000000
    24  H   -0.000002
    25  H   -0.003925
    26  H   -0.000068
    27  H    0.000054
    28  H    0.002657
    29  H   -0.026119
    30  H   -0.026169
    31  H    0.533331
 Mulliken atomic charges:
              1
     1  C    0.207105
     2  C   -0.151916
     3  C   -0.302815
     4  C    0.003864
     5  C   -0.494955
     6  C   -0.428309
     7  C   -0.693601
     8  O   -0.503718
     9  C    0.281406
    10  C   -0.666501
    11  C   -0.672477
    12  H    0.155588
    13  H    0.149577
    14  H    0.160071
    15  H    0.162924
    16  H    0.155951
    17  H    0.163678
    18  H    0.156929
    19  H    0.178875
    20  H    0.149417
    21  H    0.162858
    22  H    0.163355
    23  H    0.165585
    24  H    0.363464
    25  H    0.140389
    26  H    0.191762
    27  H    0.154022
    28  H    0.151824
    29  H    0.176105
    30  H    0.157449
    31  H    0.162094
 Sum of Mulliken atomic charges =   0.00000
 Mulliken charges with hydrogens summed into heavy atoms:
              1
     1  C    0.362693
     2  C   -0.002338
     3  C    0.020180
     4  C    0.159815
     5  C   -0.174348
     6  C   -0.100017
     7  C   -0.201803
     8  O   -0.140255
     9  C    0.421795
    10  C   -0.168893
    11  C   -0.176828
 Sum of Mulliken charges with hydrogens summed into heavy atoms =   0.00000
 Electronic spatial extent (au):  <R**2>=           2060.1721
 Charge=              0.0000 electrons
 Dipole moment (field-independent basis, Debye):
    X=              1.9193    Y=             -0.0059    Z=              0.6449  Tot=              2.0247
 Quadrupole moment (field-independent basis, Debye-Ang):
   XX=            -74.2302   YY=            -68.9727   ZZ=            -72.3236
   XY=              3.0598   XZ=             -0.8407   YZ=              2.7056
 Traceless Quadrupole moment (field-independent basis, Debye-Ang):
   XX=             -2.3880   YY=              2.8695   ZZ=             -0.4814
   XY=              3.0598   XZ=             -0.8407   YZ=              2.7056
 Octapole moment (field-independent basis, Debye-Ang**2):
  XXX=              6.7317  YYY=             24.8442  ZZZ=             -4.0011  XYY=              4.7330
  XXY=             -2.7470  XXZ=              0.4923  XZZ=              0.5902  YZZ=              2.7214
  YYZ=              7.0868  XYZ=             -1.5687
 Hexadecapole moment (field-independent basis, Debye-Ang**3):
 XXXX=          -1835.3543 YYYY=           -541.3446 ZZZZ=           -424.5946 XXXY=              4.5611
 XXXZ=            -14.2975 YYYX=             -3.5718 YYYZ=             23.7984 ZZZX=             -0.6934
 ZZZY=              2.0294 XXYY=           -408.1352 XXZZ=           -384.6273 YYZZ=           -172.3557
 XXYZ=              0.2839 YYXZ=             -1.4388 ZZXY=              0.5525
 N-N= 6.964305267425D+02 E-N=-2.478346912942D+03  KE= 4.636992108491D+02
 1\1\GINC-COMPUTE-10-6\SP\RmPW1PW91\6-31+G(d,p)\C10H20O1\ASAROTTI.IQUIR
 \19-Sep-2024\0\\# mPW1PW91/6-31+G** nmr scrf=(pcm,solvent=benzene)\\co
 mment\\0,1\C,0,2.42488,0.100802,-0.282168\C,0,0.017593,0.925348,0.1504
 3\C,0,0.424311,-1.505048,-0.31519\C,0,-0.574727,-0.339169,-0.491906\C,
 0,1.81873,-1.186398,-0.876923\C,0,1.406045,1.250076,-0.423651\C,0,2.91
 4105,-0.089226,1.164006\O,0,-0.880432,2.017381,-0.080352\C,0,-1.998692
 ,-0.733434,0.00527\C,0,-3.118022,0.021725,-0.730864\C,0,-2.178045,-0.6
 11531,1.527704\H,0,3.305986,0.366379,-0.883353\H,0,0.108183,0.755794,1
 .235273\H,0,0.024366,-2.395064,-0.81755\H,0,0.498838,-1.768043,0.7495\
 H,0,-0.65175,-0.133684,-1.571227\H,0,1.737647,-1.066208,-1.966873\H,0,
 2.496092,-2.034062,-0.7076\H,0,1.272859,1.496042,-1.486112\H,0,1.79527
 9,2.15802,0.062809\H,0,3.35686,0.836281,1.551919\H,0,2.108137,-0.37898
 7,1.847183\H,0,3.681593,-0.870978,1.212969\H,0,-0.477743,2.809924,0.30
 8454\H,0,-2.114571,-1.798561,-0.248639\H,0,-3.067928,1.094196,-0.52701
 7\H,0,-3.041035,-0.119313,-1.816085\H,0,-4.102658,-0.347635,-0.416958\
 H,0,-2.167831,0.43848,1.840657\H,0,-1.394976,-1.14226,2.082866\H,0,-3.
 140952,-1.03824,1.832357\\Version=AM64L-G09RevC.01\State=1-A\HF=-468.2
 807324\RMSD=7.126e-09\Dipole=0.7550935,-0.0023132,0.2537252\Quadrupole
 =-1.7754316,2.1333774,-0.3579459,2.2748874,-0.6250416,2.0115624\PG=C01
  [X(C10H20O1)]\\@


 A great many people think they are thinking when they
 are merely rearranging their prejudices.
                               -- William James
 Job cpu time:  0 days  0 hours 11 minutes 42.2 seconds.
 File lengths (MBytes):  RWF=    120 Int=      0 D2E=      0 Chk=      7 Scr=      1
 Normal termination of Gaussian 09 at Thu Sep 19 08:36:27 2024.
