 Entering Gaussian System, Link 0=g09
 Input=/home/asarotti.iquir/SCF2/02_Mentol09_OptB_NMR_benzene.gjc
 Output=/home/asarotti.iquir/SCF2/02_Mentol09_OptB_NMR_benzene.log
 Initial command:
 /opt/ohpc/pub/apps/software/Gaussian/09/AMD64.SSE4a-enabled/g09/l1.exe /local/asarotti.iquir/Gau-2482794.inp -scrdir=/local/asarotti.iquir/
 Entering Link 1 = /opt/ohpc/pub/apps/software/Gaussian/09/AMD64.SSE4a-enabled/g09/l1.exe PID=   2482795.
  
 Copyright (c) 1988,1990,1992,1993,1995,1998,2003,2009,2011,
            Gaussian, Inc.  All Rights Reserved.
  
 This is part of the Gaussian(R) 09 program.  It is based on
 the Gaussian(R) 03 system (copyright 2003, Gaussian, Inc.),
 the Gaussian(R) 98 system (copyright 1998, Gaussian, Inc.),
 the Gaussian(R) 94 system (copyright 1995, Gaussian, Inc.),
 the Gaussian 92(TM) system (copyright 1992, Gaussian, Inc.),
 the Gaussian 90(TM) system (copyright 1990, Gaussian, Inc.),
 the Gaussian 88(TM) system (copyright 1988, Gaussian, Inc.),
 the Gaussian 86(TM) system (copyright 1986, Carnegie Mellon
 University), and the Gaussian 82(TM) system (copyright 1983,
 Carnegie Mellon University). Gaussian is a federally registered
 trademark of Gaussian, Inc.
  
 This software contains proprietary and confidential information,
 including trade secrets, belonging to Gaussian, Inc.
  
 This software is provided under written license and may be
 used, copied, transmitted, or stored only in accord with that
 written license.
  
 The following legend is applicable only to US Government
 contracts under FAR:
  
                    RESTRICTED RIGHTS LEGEND
  
 Use, reproduction and disclosure by the US Government is
 subject to restrictions as set forth in subparagraphs (a)
 and (c) of the Commercial Computer Software - Restricted
 Rights clause in FAR 52.227-19.
  
 Gaussian, Inc.
 340 Quinnipiac St., Bldg. 40, Wallingford CT 06492
  
  
 ---------------------------------------------------------------
 Warning -- This program may not be used in any manner that
 competes with the business of Gaussian, Inc. or will provide
 assistance to any competitor of Gaussian, Inc.  The licensee
 of this program is prohibited from giving any competitor of
 Gaussian, Inc. access to this program.  By using this program,
 the user acknowledges that Gaussian, Inc. is engaged in the
 business of creating and licensing software in the field of
 computational chemistry and represents and warrants to the
 licensee that it is not a competitor of Gaussian, Inc. and that
 it will not use this program in any manner prohibited above.
 ---------------------------------------------------------------
  

 Cite this work as:
 Gaussian 09, Revision C.01,
 M. J. Frisch, G. W. Trucks, H. B. Schlegel, G. E. Scuseria, 
 M. A. Robb, J. R. Cheeseman, G. Scalmani, V. Barone, B. Mennucci, 
 G. A. Petersson, H. Nakatsuji, M. Caricato, X. Li, H. P. Hratchian, 
 A. F. Izmaylov, J. Bloino, G. Zheng, J. L. Sonnenberg, M. Hada, 
 M. Ehara, K. Toyota, R. Fukuda, J. Hasegawa, M. Ishida, T. Nakajima, 
 Y. Honda, O. Kitao, H. Nakai, T. Vreven, J. A. Montgomery, Jr., 
 J. E. Peralta, F. Ogliaro, M. Bearpark, J. J. Heyd, E. Brothers, 
 K. N. Kudin, V. N. Staroverov, T. Keith, R. Kobayashi, J. Normand, 
 K. Raghavachari, A. Rendell, J. C. Burant, S. S. Iyengar, J. Tomasi, 
 M. Cossi, N. Rega, J. M. Millam, M. Klene, J. E. Knox, J. B. Cross, 
 V. Bakken, C. Adamo, J. Jaramillo, R. Gomperts, R. E. Stratmann, 
 O. Yazyev, A. J. Austin, R. Cammi, C. Pomelli, J. W. Ochterski, 
 R. L. Martin, K. Morokuma, V. G. Zakrzewski, G. A. Voth, 
 P. Salvador, J. J. Dannenberg, S. Dapprich, A. D. Daniels, 
 O. Farkas, J. B. Foresman, J. V. Ortiz, J. Cioslowski, 
 and D. J. Fox, Gaussian, Inc., Wallingford CT, 2010.
 
 ******************************************
 Gaussian 09:  AM64L-G09RevC.01 23-Sep-2011
                19-Sep-2024 
 ******************************************
 %nprocshared=4
 Will use up to    4 processors via shared memory.
 %mem=100mw
 --------------------------------------------------
 # mPW1PW91/6-31+G** nmr scrf=(pcm,solvent=benzene)
 --------------------------------------------------
 1/38=1/1;
 2/12=2,17=6,18=5,40=1/2;
 3/5=1,6=6,7=111,11=2,16=1,25=1,30=1,70=2201,72=12,74=-7/1,2,8,3;
 4//1;
 5/5=2,38=5,53=12/2;
 8/6=1,10=90,11=11/1;
 10/13=100,45=16/2;
 6/7=2,8=2,9=2,10=2,28=1/1;
 99/9=1/99;
 -------
 comment
 -------
 Charge =  0 Multiplicity = 1
 Symbolic Z-Matrix:
 6                     2.42403   0.09793  -0.28972 
 6                     0.02987   0.93547   0.15081 
 6                     0.42502  -1.50884  -0.28784 
 6                    -0.56736  -0.34029  -0.48316 
 6                     1.81625  -1.19903  -0.86156 
 6                     1.41052   1.25059  -0.43505 
 6                     2.92631  -0.07365   1.15441 
 8                    -0.76464   2.10709  -0.07528 
 6                    -1.99827  -0.72812  -0.00042 
 6                    -3.10916   0.01352  -0.76499 
 6                    -2.2003   -0.6093    1.52074 
 1                     3.30091   0.35417  -0.90108 
 1                     0.13404   0.77401   1.23534 
 1                     0.02218  -2.40855  -0.77125 
 1                     0.50512  -1.75152   0.78162 
 1                    -0.63489  -0.14435  -1.56462 
 1                     1.72814  -1.09637  -1.95276 
 1                     2.49441  -2.04415  -0.68281 
 1                     1.27068   1.48613  -1.49925 
 1                     1.78967   2.16373   0.0399 
 1                     3.37291   0.85683   1.52481 
 1                     2.12579  -0.35151   1.84929 
 1                     3.69255  -0.85649   1.20813 
 1                    -1.53461   2.06189   0.51 
 1                    -2.11616  -1.79418  -0.24632 
 1                    -3.05643   1.0973   -0.62178 
 1                    -3.03042  -0.16984  -1.8429 
 1                    -4.10051  -0.32471  -0.43904 
 1                    -2.20388   0.43552   1.85948 
 1                    -1.41931  -1.1336    2.08295 
 1                    -3.1645   -1.04071   1.81327 
 
                          Input orientation:                          
 ---------------------------------------------------------------------
 Center     Atomic      Atomic             Coordinates (Angstroms)
 Number     Number       Type             X           Y           Z
 ---------------------------------------------------------------------
      1          6           0        2.424033    0.097929   -0.289718
      2          6           0        0.029874    0.935470    0.150806
      3          6           0        0.425016   -1.508841   -0.287843
      4          6           0       -0.567359   -0.340292   -0.483159
      5          6           0        1.816251   -1.199030   -0.861561
      6          6           0        1.410519    1.250588   -0.435045
      7          6           0        2.926310   -0.073649    1.154413
      8          8           0       -0.764644    2.107091   -0.075283
      9          6           0       -1.998273   -0.728123   -0.000422
     10          6           0       -3.109160    0.013523   -0.764994
     11          6           0       -2.200304   -0.609296    1.520737
     12          1           0        3.300908    0.354170   -0.901077
     13          1           0        0.134040    0.774008    1.235337
     14          1           0        0.022177   -2.408549   -0.771252
     15          1           0        0.505117   -1.751519    0.781621
     16          1           0       -0.634889   -0.144347   -1.564624
     17          1           0        1.728137   -1.096373   -1.952756
     18          1           0        2.494410   -2.044155   -0.682810
     19          1           0        1.270678    1.486132   -1.499245
     20          1           0        1.789670    2.163733    0.039895
     21          1           0        3.372910    0.856827    1.524806
     22          1           0        2.125790   -0.351509    1.849292
     23          1           0        3.692552   -0.856488    1.208127
     24          1           0       -1.534608    2.061894    0.509999
     25          1           0       -2.116156   -1.794176   -0.246324
     26          1           0       -3.056428    1.097301   -0.621780
     27          1           0       -3.030416   -0.169844   -1.842898
     28          1           0       -4.100509   -0.324708   -0.439035
     29          1           0       -2.203877    0.435524    1.859477
     30          1           0       -1.419305   -1.133598    2.082954
     31          1           0       -3.164496   -1.040714    1.813273
 ---------------------------------------------------------------------
                    Distance matrix (angstroms):
                    1          2          3          4          5
     1  C    0.000000
     2  C    2.574400   0.000000
     3  C    2.564719   2.514599   0.000000
     4  C    3.029502   1.544722   1.545465   0.000000
     5  C    1.542241   2.961776   1.536447   2.561682   0.000000
     6  C    1.541737   1.532547   2.933826   2.538743   2.519358
     7  C    1.538582   3.227211   3.224337   3.867617   2.561809
     8  O    3.774967   1.433552   3.812537   2.488969   4.267281
     9  C    4.508087   2.627507   2.562120   1.559155   3.938770
    10  C    5.554209   3.397383   3.877585   2.581737   5.073390
    11  C    5.016214   3.039195   3.312469   2.598937   4.706999
    12  H    1.099240   3.484829   3.481037   3.952268   2.148999
    13  H    2.833186   1.101421   2.759736   2.164914   3.334621
    14  H    3.504742   3.468820   1.097924   2.169847   2.165593
    15  H    2.872362   2.800659   1.099574   2.177484   2.173560
    16  H    3.322813   2.133217   2.148351   1.101145   2.759482
    17  H    2.162481   3.381931   2.154110   2.828547   1.099549
    18  H    2.178990   3.955631   2.173695   3.509621   1.098220
    19  H    2.172623   2.136701   3.339536   2.783278   2.813252
    20  H    2.186003   2.148910   3.931602   3.478407   3.481595
    21  H    2.183756   3.615239   4.191916   4.581565   3.513472
    22  H    2.205971   2.988985   2.966378   3.562795   2.857067
    23  H    2.182565   4.212393   3.652435   4.612347   2.814507
    24  H    4.490829   1.960983   4.150521   2.773523   4.872685
    25  H    4.918868   3.494871   2.557478   2.137438   4.024493
    26  H    5.580722   3.185646   4.361644   2.877734   5.391997
    27  H    5.677595   3.816012   4.018846   2.818615   5.050983
    28  H    6.539921   4.358443   4.680321   3.533460   5.995917
    29  H    5.113762   2.856422   3.911856   2.961085   5.122230
    30  H    4.681611   3.180308   3.027046   2.817815   4.375303
    31  H    6.078712   4.107688   4.185502   3.536851   5.655762
                    6          7          8          9         10
     6  C    0.000000
     7  C    2.564684   0.000000
     8  O    2.365240   4.459924   0.000000
     9  C    3.965357   5.100343   3.092876   0.000000
    10  C    4.697520   6.333926   3.217994   1.539051   0.000000
    11  C    4.508026   5.167522   3.462248   1.539110   2.537418
    12  H    2.143437   2.132696   4.503707   5.483052   6.420555
    13  H    2.155621   2.919220   2.074239   2.886218   3.885615
    14  H    3.928080   4.194512   4.636212   2.738655   3.958755
    15  H    3.363432   2.969242   4.151560   2.815296   4.309337
    16  H    2.721302   4.481105   2.702581   2.155537   2.605062
    17  H    2.812926   3.483688   4.472253   4.222955   5.103145
    18  H    3.477289   2.728520   5.312567   4.730940   5.969991
    19  H    1.098889   3.495130   2.560428   4.223202   4.678748
    20  H    1.096885   2.745902   2.557537   4.765812   5.410156
    21  H    2.801257   1.096553   4.608991   5.804136   6.926152
    22  H    2.880369   1.095854   4.254799   4.535546   5.862801
    23  H    3.513895   1.096745   5.504229   5.819154   7.135363
    24  H    3.197671   4.987545   0.968216   2.873971   2.881084
    25  H    4.663008   5.508969   4.132278   1.100379   2.126700
    26  H    4.473475   6.349735   2.563320   2.199534   1.094470
    27  H    4.870481   6.669011   3.666418   2.184425   1.096221
    28  H    5.731754   7.209597   4.144147   2.185068   1.097006
    29  H    4.358098   5.203383   2.934080   2.203536   2.808108
    30  H    4.475775   4.568375   3.948244   2.200016   3.504612
    31  H    5.588896   6.202195   4.385728   2.178825   2.786026
                   11         12         13         14         15
    11  C    0.000000
    12  H    6.087428   0.000000
    13  H    2.728396   3.843121   0.000000
    14  H    3.664689   4.289469   3.763985   0.000000
    15  H    3.028245   3.883535   2.592652   1.753948   0.000000
    16  H    3.490867   4.022352   3.045391   2.487526   3.063900
    17  H    5.266407   2.384054   4.025346   2.455210   3.066237
    18  H    5.380965   2.539693   4.146405   2.500508   2.487465
    19  H    5.055574   2.400203   3.045818   4.154187   4.033710
    20  H    5.079614   2.538462   2.470127   4.968677   4.186816
    21  H    5.762833   2.478459   3.252834   5.211715   3.947155
    22  H    4.346204   3.073014   2.368712   3.940032   2.393017
    23  H    5.906317   2.463294   3.914367   4.449549   3.338073
    24  H    2.932575   5.318804   2.229159   4.904084   4.333172
    25  H    2.129208   5.864186   3.722133   2.285929   2.815948
    26  H    2.869808   6.406713   3.705737   4.668098   4.771783
    27  H    3.492312   6.422405   4.514440   3.934279   4.678653
    28  H    2.744536   7.446834   4.684240   4.631339   4.973689
    29  H    1.098365   6.158728   2.443354   4.468199   3.644664
    30  H    1.095874   5.779127   2.601979   3.442363   2.403891
    31  H    1.096068   7.149465   3.808880   4.325000   3.877578
                   16         17         18         19         20
    16  H    0.000000
    17  H    2.576993   0.000000
    18  H    3.765552   1.760178   0.000000
    19  H    2.508769   2.661630   3.824528   0.000000
    20  H    3.712169   3.821353   4.327272   1.759957   0.000000
    21  H    5.158428   4.314360   3.749804   3.736347   2.533695
    22  H    4.395348   3.894678   3.067975   3.914185   3.116623
    23  H    5.188645   3.729297   2.534115   4.322407   3.755990
    24  H    3.159281   5.165783   5.874982   3.498313   3.358898
    25  H    2.579535   4.263499   4.637923   4.878614   5.567984
    26  H    2.880017   5.429159   6.378422   4.432266   5.005972
    27  H    2.411770   4.849160   5.948323   4.621662   5.676594
    28  H    3.648288   6.071238   6.819742   5.766527   6.412170
    29  H    3.810832   5.686876   5.889476   4.945435   4.716567
    30  H    3.859890   5.118079   4.878087   5.189522   5.034283
    31  H    4.314229   6.174458   6.265823   6.085104   6.160934
                   21         22         23         24         25
    21  H    0.000000
    22  H    1.766543   0.000000
    23  H    1.771413   1.766590   0.000000
    24  H    5.154198   4.584401   6.027233   0.000000
    25  H    6.347800   4.946413   6.061004   3.972342   0.000000
    26  H    6.782481   5.921202   7.260481   2.127745   3.063612
    27  H    7.307398   6.344425   7.414751   3.571305   2.454256
    28  H    7.816949   6.633548   7.982965   3.630480   2.476718
    29  H    5.602683   4.400630   6.071361   2.216775   3.068168
    30  H    5.219066   3.637851   5.193572   3.563517   2.519425
    31  H    6.813336   5.335113   6.886164   3.739149   2.430774
                   26         27         28         29         30
    26  H    0.000000
    27  H    1.759961   0.000000
    28  H    1.773587   1.771980   0.000000
    29  H    2.705814   3.841512   3.075439   0.000000
    30  H    3.869453   4.351645   3.768765   1.768513   0.000000
    31  H    3.242263   3.760848   2.541983   1.761875   1.768346
                   31
    31  H    0.000000
 Stoichiometry    C10H20O
 Framework group  C1[X(C10H20O)]
 Deg. of freedom    87
 Full point group                 C1      NOp   1
 Largest Abelian subgroup         C1      NOp   1
 Largest concise Abelian subgroup C1      NOp   1
                         Standard orientation:                         
 ---------------------------------------------------------------------
 Center     Atomic      Atomic             Coordinates (Angstroms)
 Number     Number       Type             X           Y           Z
 ---------------------------------------------------------------------
      1          6           0        2.424033    0.097929   -0.289718
      2          6           0        0.029874    0.935470    0.150806
      3          6           0        0.425016   -1.508841   -0.287843
      4          6           0       -0.567359   -0.340292   -0.483159
      5          6           0        1.816251   -1.199030   -0.861561
      6          6           0        1.410519    1.250588   -0.435045
      7          6           0        2.926310   -0.073649    1.154413
      8          8           0       -0.764644    2.107091   -0.075283
      9          6           0       -1.998273   -0.728123   -0.000422
     10          6           0       -3.109160    0.013523   -0.764994
     11          6           0       -2.200304   -0.609296    1.520737
     12          1           0        3.300908    0.354170   -0.901077
     13          1           0        0.134040    0.774008    1.235337
     14          1           0        0.022177   -2.408549   -0.771252
     15          1           0        0.505117   -1.751519    0.781621
     16          1           0       -0.634889   -0.144347   -1.564624
     17          1           0        1.728137   -1.096373   -1.952756
     18          1           0        2.494410   -2.044155   -0.682810
     19          1           0        1.270678    1.486132   -1.499245
     20          1           0        1.789670    2.163733    0.039895
     21          1           0        3.372910    0.856827    1.524806
     22          1           0        2.125790   -0.351509    1.849292
     23          1           0        3.692552   -0.856488    1.208127
     24          1           0       -1.534608    2.061894    0.509999
     25          1           0       -2.116156   -1.794176   -0.246324
     26          1           0       -3.056428    1.097301   -0.621780
     27          1           0       -3.030416   -0.169844   -1.842898
     28          1           0       -4.100509   -0.324708   -0.439035
     29          1           0       -2.203877    0.435524    1.859477
     30          1           0       -1.419305   -1.133598    2.082954
     31          1           0       -3.164496   -1.040714    1.813273
 ---------------------------------------------------------------------
 Rotational constants (GHZ):      1.7148176      0.7306590      0.6466907
 Standard basis: 6-31+G(d,p) (6D, 7F)
 There are   309 symmetry adapted basis functions of A   symmetry.
 Integral buffers will be    131072 words long.
 Raffenetti 2 integral format.
 Two-electron integral symmetry is turned on.
   309 basis functions,   492 primitive gaussians,   309 cartesian basis functions
    44 alpha electrons       44 beta electrons
       nuclear repulsion energy       695.6823465368 Hartrees.
 NAtoms=   31 NActive=   31 NUniq=   31 SFac= 1.00D+00 NAtFMM=   60 NAOKFM=F Big=F
 ------------------------------------------------------------------------------
 Polarizable Continuum Model (PCM)
 =================================
 Model                : PCM.
 Atomic radii         : UFF (Universal Force Field).
 Polarization charges : Total charges.
 Charge compensation  : None.
 Solution method      : Matrix inversion.
 Cavity type          : Scaled VdW (van der Waals Surface) (Alpha=1.100).
 Cavity algorithm     : GePol (No added spheres)
                        Default sphere list used, NSphG=   31.
                        Lebedev-Laikov grids with approx.  5.0 points / Ang**2.
                        Smoothing algorithm: Karplus/York (Gamma=1.0000).
                        Polarization charges: spherical gaussians, with
                                              point-specific exponents (IZeta= 3).
                        Self-potential: point-specific (ISelfS= 7).
                        Self-field    : sphere-specific E.n sum rule (ISelfD= 2).
 Solvent              : Benzene, Eps=   2.270600 Eps(inf)=   2.253301
 ------------------------------------------------------------------------------
 One-electron integrals computed using PRISM.
 NBasis=   309 RedAO= T  NBF=   309
 NBsUse=   309 1.00D-06 NBFU=   309
 Harris functional with IExCor=  908 diagonalized for initial guess.
 ExpMin= 4.38D-02 ExpMax= 5.48D+03 ExpMxC= 8.25D+02 IAcc=2 IRadAn=         4 AccDes= 0.00D+00
 HarFok:  IExCor=  908 AccDes= 0.00D+00 IRadAn=         4 IDoV= 1
 ScaDFX=  1.000000  1.000000  1.000000  1.000000
 FoFCou: FMM=F IPFlag=           0 FMFlag=      100000 FMFlg1=           0
         NFxFlg=           0 DoJE=T BraDBF=F KetDBF=T FulRan=T
         Omega=  0.000000  0.000000  1.000000  0.000000  0.000000 ICntrl=     500 IOpCl=  0
         NMat0=    1 NMatS0=    1 NMatT0=    0 NMatD0=    1 NMtDS0=    0 NMtDT0=    0
         I1Cent=           4 NGrid=           0.
 Petite list used in FoFCou.
 Initial guess orbital symmetries:
       Occupied  (A) (A) (A) (A) (A) (A) (A) (A) (A) (A) (A) (A)
                 (A) (A) (A) (A) (A) (A) (A) (A) (A) (A) (A) (A)
                 (A) (A) (A) (A) (A) (A) (A) (A) (A) (A) (A) (A)
                 (A) (A) (A) (A) (A) (A) (A) (A)
       Virtual   (A) (A) (A) (A) (A) (A) (A) (A) (A) (A) (A) (A)
                 (A) (A) (A) (A) (A) (A) (A) (A) (A) (A) (A) (A)
                 (A) (A) (A) (A) (A) (A) (A) (A) (A) (A) (A) (A)
                 (A) (A) (A) (A) (A) (A) (A) (A) (A) (A) (A) (A)
                 (A) (A) (A) (A) (A) (A) (A) (A) (A) (A) (A) (A)
                 (A) (A) (A) (A) (A) (A) (A) (A) (A) (A) (A) (A)
                 (A) (A) (A) (A) (A) (A) (A) (A) (A) (A) (A) (A)
                 (A) (A) (A) (A) (A) (A) (A) (A) (A) (A) (A) (A)
                 (A) (A) (A) (A) (A) (A) (A) (A) (A) (A) (A) (A)
                 (A) (A) (A) (A) (A) (A) (A) (A) (A) (A) (A) (A)
                 (A) (A) (A) (A) (A) (A) (A) (A) (A) (A) (A) (A)
                 (A) (A) (A) (A) (A) (A) (A) (A) (A) (A) (A) (A)
                 (A) (A) (A) (A) (A) (A) (A) (A) (A) (A) (A) (A)
                 (A) (A) (A) (A) (A) (A) (A) (A) (A) (A) (A) (A)
                 (A) (A) (A) (A) (A) (A) (A) (A) (A) (A) (A) (A)
                 (A) (A) (A) (A) (A) (A) (A) (A) (A) (A) (A) (A)
                 (A) (A) (A) (A) (A) (A) (A) (A) (A) (A) (A) (A)
                 (A) (A) (A) (A) (A) (A) (A) (A) (A) (A) (A) (A)
                 (A) (A) (A) (A) (A) (A) (A) (A) (A) (A) (A) (A)
                 (A) (A) (A) (A) (A) (A) (A) (A) (A) (A) (A) (A)
                 (A) (A) (A) (A) (A) (A) (A) (A) (A) (A) (A) (A)
                 (A) (A) (A) (A) (A) (A) (A) (A) (A) (A) (A) (A)
                 (A)
 The electronic state of the initial guess is 1-A.
 Requested convergence on RMS density matrix=1.00D-08 within 128 cycles.
 Requested convergence on MAX density matrix=1.00D-06.
 Requested convergence on             energy=1.00D-06.
 No special actions if energy rises.
 Error on total polarization charges =  0.00930
 SCF Done:  E(RmPW1PW91) =  -468.279274745     A.U. after   12 cycles
             Convg  =    0.9178D-08             -V/T =  2.0099
 Range of M.O.s used for correlation:     1   309
 NBasis=   309 NAE=    44 NBE=    44 NFC=     0 NFV=     0
 NROrb=    309 NOA=    44 NOB=    44 NVA=   265 NVB=   265

 **** Warning!!: The largest alpha MO coefficient is  0.82513026D+02

 NEqPCM:  Using equilibrium solvation (IEInf=0, Eps=   2.2706, EpsInf=   2.2533)
          Differentiating once with respect to magnetic field using GIAOs.
          Electric field/nuclear overlap derivatives assumed to be zero.
 FoFCou: FMM=F IPFlag=           0 FMFlag=    10101102 FMFlg1=           0
         NFxFlg=    40000000 DoJE=F BraDBF=F KetDBF=T FulRan=T
         Omega=  0.000000  0.000000  1.000000  0.000000  0.000000 ICntrl=    6100 IOpCl=  0
         NMat0=    1 NMatS0=    1 NMatT0=    0 NMatD0=    1 NMtDS0=    0 NMtDT0=    0
         I1Cent=           7 NGrid=        1910.
 Symmetry not used in FoFCou.
          There are     3 degrees of freedom in the 1st order CPHF.  IDoFFX=0.
      3 vectors produced by pass  0 Test12= 3.89D-13 3.33D-08 XBig12= 3.81D+01 1.11D+00.
 AX will form     3 AO Fock derivatives at one time.
      3 vectors produced by pass  1 Test12= 3.89D-13 3.33D-08 XBig12= 8.21D-02 5.32D-02.
      3 vectors produced by pass  2 Test12= 3.89D-13 3.33D-08 XBig12= 1.22D-04 2.12D-03.
      3 vectors produced by pass  3 Test12= 3.89D-13 3.33D-08 XBig12= 3.13D-07 1.33D-04.
      3 vectors produced by pass  4 Test12= 3.89D-13 3.33D-08 XBig12= 1.58D-09 8.73D-06.
      3 vectors produced by pass  5 Test12= 3.89D-13 3.33D-08 XBig12= 5.53D-12 3.55D-07.
 Inverted reduced A of dimension    18 with in-core refinement.
 Calculating GIAO nuclear magnetic shielding tensors.
 SCF GIAO Magnetic shielding tensor (ppm):
      1  C    Isotropic =   163.8820   Anisotropy =     4.0685
   XX=   165.0113   YX=    -0.0049   ZX=     1.8787
   XY=     1.3419   YY=   166.0447   ZY=    -0.2001
   XZ=     1.0547   YZ=     1.1902   ZZ=   160.5901
   Eigenvalues:   160.1342   164.9176   166.5944
      2  C    Isotropic =   125.9630   Anisotropy =    60.0027
   XX=   127.9052   YX=   -17.2438   ZX=    10.4443
   XY=   -23.4780   YY=   152.8570   ZY=    -3.6990
   XZ=    13.8776   YZ=    -7.2803   ZZ=    97.1270
   Eigenvalues:    92.8560   119.0683   165.9648
      3  C    Isotropic =   166.6990   Anisotropy =    28.2665
   XX=   180.9539   YX=    -5.1479   ZX=    -5.8381
   XY=    -7.4296   YY=   176.0464   ZY=     1.9745
   XZ=    -0.2609   YZ=     1.5930   ZZ=   143.0968
   Eigenvalues:   142.8021   171.7517   185.5433
      4  C    Isotropic =   144.2019   Anisotropy =     9.5993
   XX=   144.9528   YX=     4.5229   ZX=    -1.4378
   XY=    -0.5048   YY=   139.5103   ZY=    -1.4583
   XZ=    -2.2700   YZ=    -5.9866   ZZ=   148.1427
   Eigenvalues:   137.8930   144.1112   150.6014
      5  C    Isotropic =   162.4606   Anisotropy =    11.9398
   XX=   163.2759   YX=     3.2823   ZX=     4.1337
   XY=     3.3092   YY=   164.6494   ZY=     7.7510
   XZ=     3.3499   YZ=     1.1702   ZZ=   159.4563
   Eigenvalues:   156.3638   160.5974   170.4204
      6  C    Isotropic =   154.5731   Anisotropy =    22.9925
   XX=   166.5601   YX=   -10.0346   ZX=     2.0717
   XY=    -4.0867   YY=   154.9350   ZY=    -7.5008
   XZ=    -4.6350   YZ=    -0.1548   ZZ=   142.2241
   Eigenvalues:   140.7374   153.0804   169.9014
      7  C    Isotropic =   176.4323   Anisotropy =    30.4847
   XX=   166.5919   YX=    -5.8452   ZX=    15.5881
   XY=    -6.3878   YY=   176.6161   ZY=     0.2509
   XZ=    19.5243   YZ=     1.0485   ZZ=   186.0889
   Eigenvalues:   154.8103   177.7312   196.7554
      8  O    Isotropic =   277.7944   Anisotropy =    49.6051
   XX=   300.5264   YX=   -15.5202   ZX=   -13.6365
   XY=    -4.8850   YY=   268.7637   ZY=     5.7888
   XZ=   -19.4250   YZ=    12.6313   ZZ=   264.0932
   Eigenvalues:   255.3457   267.1731   310.8645
      9  C    Isotropic =   158.9880   Anisotropy =    24.3539
   XX=   173.6491   YX=     2.5176   ZX=    -3.6346
   XY=     3.2625   YY=   157.8362   ZY=    -0.2577
   XZ=    -8.0351   YZ=     1.8533   ZZ=   145.4787
   Eigenvalues:   144.1828   157.5571   175.2239
     10  C    Isotropic =   169.6003   Anisotropy =    35.7386
   XX=   182.5699   YX=    -8.2198   ZX=    13.2151
   XY=   -11.9016   YY=   156.5208   ZY=    -9.6517
   XZ=     8.4886   YZ=    -7.9142   ZZ=   169.7102
   Eigenvalues:   151.3614   164.0134   193.4260
     11  C    Isotropic =   177.4379   Anisotropy =    23.1868
   XX=   170.0889   YX=    -0.5028   ZX=    -3.1307
   XY=    -1.5529   YY=   169.3574   ZY=     1.1706
   XZ=     1.5220   YZ=    -1.3047   ZZ=   192.8674
   Eigenvalues:   168.6210   170.7969   192.8958
     12  H    Isotropic =    29.6191   Anisotropy =    10.1158
   XX=    33.5340   YX=     1.9380   ZX=    -3.8372
   XY=     1.9275   YY=    26.0134   ZY=    -1.2425
   XZ=    -3.9499   YZ=    -1.2599   ZZ=    29.3100
   Eigenvalues:    25.4972    26.9973    36.3630
     13  H    Isotropic =    27.6742   Anisotropy =     3.6474
   XX=    29.5805   YX=    -1.1804   ZX=     0.9688
   XY=    -1.5906   YY=    26.0032   ZY=    -0.8241
   XZ=    -0.3688   YZ=     0.2912   ZZ=    27.4388
   Eigenvalues:    25.5167    27.4000    30.1058
     14  H    Isotropic =    30.4565   Anisotropy =     9.1041
   XX=    30.4886   YX=     1.3484   ZX=    -0.0315
   XY=     2.0884   YY=    34.8704   ZY=     3.8963
   XZ=    -0.6098   YZ=     3.2849   ZZ=    26.0106
   Eigenvalues:    24.6032    30.2405    36.5259
     15  H    Isotropic =    30.0473   Anisotropy =     4.8543
   XX=    30.8536   YX=    -0.6919   ZX=    -0.6473
   XY=    -0.1189   YY=    28.7542   ZY=    -4.0283
   XZ=    -0.2199   YZ=    -3.0219   ZZ=    30.5341
   Eigenvalues:    25.9385    30.9199    33.2835
     16  H    Isotropic =    30.2820   Anisotropy =     3.7777
   XX=    32.2731   YX=    -0.5080   ZX=     0.2442
   XY=    -0.0400   YY=    26.4319   ZY=    -0.3323
   XZ=     0.8232   YZ=    -0.8376   ZZ=    32.1409
   Eigenvalues:    26.3644    31.6811    32.8005
     17  H    Isotropic =    29.9968   Anisotropy =     8.9487
   XX=    28.2419   YX=     0.4622   ZX=    -2.0885
   XY=     0.3634   YY=    26.8835   ZY=     3.1593
   XZ=    -1.3963   YZ=     2.0788   ZZ=    34.8649
   Eigenvalues:    25.7458    28.2820    35.9626
     18  H    Isotropic =    30.1976   Anisotropy =     9.7885
   XX=    31.9549   YX=    -3.9832   ZX=    -0.6120
   XY=    -4.4092   YY=    32.6850   ZY=     1.3927
   XZ=    -0.4016   YZ=     1.5639   ZZ=    25.9529
   Eigenvalues:    25.6086    28.2610    36.7233
     19  H    Isotropic =    30.0425   Anisotropy =     6.7056
   XX=    28.9780   YX=     0.1653   ZX=    -0.6616
   XY=    -0.5711   YY=    29.4712   ZY=    -4.3413
   XZ=    -0.6712   YZ=    -3.1549   ZZ=    31.6784
   Eigenvalues:    26.5372    29.0775    34.5129
     20  H    Isotropic =    29.8342   Anisotropy =     7.5605
   XX=    30.0138   YX=     2.1894   ZX=     0.8353
   XY=     2.1397   YY=    33.5154   ZY=     1.7868
   XZ=     1.3127   YZ=     0.9575   ZZ=    25.9734
   Eigenvalues:    25.6074    29.0207    34.8745
     21  H    Isotropic =    30.6819   Anisotropy =    10.2773
   XX=    30.4939   YX=     3.1983   ZX=     3.9577
   XY=     2.9510   YY=    31.3264   ZY=     2.3927
   XZ=     4.1591   YZ=     3.8940   ZZ=    30.2255
   Eigenvalues:    26.2935    28.2188    37.5335
     22  H    Isotropic =    30.2777   Anisotropy =     5.4429
   XX=    31.4449   YX=     0.8505   ZX=     0.3172
   XY=     0.8908   YY=    25.9844   ZY=    -1.6820
   XZ=    -1.0328   YZ=    -1.7685   ZZ=    33.4039
   Eigenvalues:    25.5017    31.4251    33.9063
     23  H    Isotropic =    30.7994   Anisotropy =    11.0072
   XX=    33.5036   YX=    -4.4244   ZX=     3.1166
   XY=    -4.7774   YY=    30.1634   ZY=    -0.7216
   XZ=     3.8058   YZ=    -2.0454   ZZ=    28.7312
   Eigenvalues:    26.3096    27.9510    38.1375
     24  H    Isotropic =    30.4107   Anisotropy =    15.5646
   XX=    35.7470   YX=    -1.9226   ZX=    -8.4436
   XY=    -3.2002   YY=    29.4475   ZY=     0.2446
   XZ=    -7.8961   YZ=    -0.7712   ZZ=    26.0377
   Eigenvalues:    21.1131    29.3320    40.7872
     25  H    Isotropic =    30.1037   Anisotropy =     6.4813
   XX=    29.8078   YX=     1.2102   ZX=     0.5781
   XY=     0.8657   YY=    33.5848   ZY=     2.2514
   XZ=     0.3930   YZ=     1.7825   ZZ=    26.9184
   Eigenvalues:    26.3448    29.5416    34.4245
     26  H    Isotropic =    30.4544   Anisotropy =     5.9296
   XX=    31.5099   YX=    -1.2687   ZX=     1.8086
   XY=    -0.7117   YY=    33.7450   ZY=    -0.5145
   XZ=     2.2390   YZ=    -1.0898   ZZ=    26.1084
   Eigenvalues:    25.4095    31.5463    34.4075
     27  H    Isotropic =    30.3285   Anisotropy =     9.5177
   XX=    29.5502   YX=    -0.3990   ZX=     3.9047
   XY=    -0.2063   YY=    26.1697   ZY=    -0.0777
   XZ=     2.4172   YZ=     0.8264   ZZ=    35.2655
   Eigenvalues:    26.0765    28.2353    36.6736
     28  H    Isotropic =    30.6376   Anisotropy =    11.0281
   XX=    37.8236   YX=     1.8089   ZX=     0.1042
   XY=     0.7601   YY=    26.5629   ZY=    -0.6406
   XZ=     1.0173   YZ=    -0.8762   ZZ=    27.5263
   Eigenvalues:    25.9815    27.9416    37.9897
     29  H    Isotropic =    31.1069   Anisotropy =     6.9627
   XX=    28.8805   YX=     0.1763   ZX=    -2.0537
   XY=     0.4991   YY=    32.4851   ZY=     2.9094
   XZ=    -2.3141   YZ=     3.6499   ZZ=    31.9552
   Eigenvalues:    26.9785    30.5936    35.7487
     30  H    Isotropic =    30.3558   Anisotropy =     8.2918
   XX=    30.5623   YX=    -2.2266   ZX=     0.6321
   XY=    -1.9482   YY=    27.2708   ZY=    -3.6219
   XZ=     1.9909   YZ=    -3.8650   ZZ=    33.2343
   Eigenvalues:    25.1230    30.0608    35.8837
     31  H    Isotropic =    30.6011   Anisotropy =    10.8085
   XX=    33.3277   YX=     3.3680   ZX=    -3.6581
   XY=     3.2449   YY=    27.7380   ZY=    -2.1411
   XZ=    -4.4443   YZ=    -2.0704   ZZ=    30.7376
   Eigenvalues:    26.1840    27.8125    37.8068
 End of Minotr Frequency-dependent properties file   721 does not exist.
 End of Minotr Frequency-dependent properties file   722 does not exist.

 **********************************************************************

            Population analysis using the SCF density.

 **********************************************************************

 Orbital symmetries:
       Occupied  (A) (A) (A) (A) (A) (A) (A) (A) (A) (A) (A) (A)
                 (A) (A) (A) (A) (A) (A) (A) (A) (A) (A) (A) (A)
                 (A) (A) (A) (A) (A) (A) (A) (A) (A) (A) (A) (A)
                 (A) (A) (A) (A) (A) (A) (A) (A)
       Virtual   (A) (A) (A) (A) (A) (A) (A) (A) (A) (A) (A) (A)
                 (A) (A) (A) (A) (A) (A) (A) (A) (A) (A) (A) (A)
                 (A) (A) (A) (A) (A) (A) (A) (A) (A) (A) (A) (A)
                 (A) (A) (A) (A) (A) (A) (A) (A) (A) (A) (A) (A)
                 (A) (A) (A) (A) (A) (A) (A) (A) (A) (A) (A) (A)
                 (A) (A) (A) (A) (A) (A) (A) (A) (A) (A) (A) (A)
                 (A) (A) (A) (A) (A) (A) (A) (A) (A) (A) (A) (A)
                 (A) (A) (A) (A) (A) (A) (A) (A) (A) (A) (A) (A)
                 (A) (A) (A) (A) (A) (A) (A) (A) (A) (A) (A) (A)
                 (A) (A) (A) (A) (A) (A) (A) (A) (A) (A) (A) (A)
                 (A) (A) (A) (A) (A) (A) (A) (A) (A) (A) (A) (A)
                 (A) (A) (A) (A) (A) (A) (A) (A) (A) (A) (A) (A)
                 (A) (A) (A) (A) (A) (A) (A) (A) (A) (A) (A) (A)
                 (A) (A) (A) (A) (A) (A) (A) (A) (A) (A) (A) (A)
                 (A) (A) (A) (A) (A) (A) (A) (A) (A) (A) (A) (A)
                 (A) (A) (A) (A) (A) (A) (A) (A) (A) (A) (A) (A)
                 (A) (A) (A) (A) (A) (A) (A) (A) (A) (A) (A) (A)
                 (A) (A) (A) (A) (A) (A) (A) (A) (A) (A) (A) (A)
                 (A) (A) (A) (A) (A) (A) (A) (A) (A) (A) (A) (A)
                 (A) (A) (A) (A) (A) (A) (A) (A) (A) (A) (A) (A)
                 (A) (A) (A) (A) (A) (A) (A) (A) (A) (A) (A) (A)
                 (A) (A) (A) (A) (A) (A) (A) (A) (A) (A) (A) (A)
                 (A)
 The electronic state is 1-A.
 Alpha  occ. eigenvalues --  -19.24441 -10.29357 -10.25448 -10.25082 -10.24658
 Alpha  occ. eigenvalues --  -10.24213 -10.24006 -10.23983 -10.23627 -10.23343
 Alpha  occ. eigenvalues --  -10.23298  -1.04926  -0.86095  -0.82300  -0.76583
 Alpha  occ. eigenvalues --   -0.75418  -0.70646  -0.69747  -0.63046  -0.62397
 Alpha  occ. eigenvalues --   -0.57923  -0.55295  -0.52577  -0.48869  -0.47346
 Alpha  occ. eigenvalues --   -0.45857  -0.45202  -0.43735  -0.42358  -0.42263
 Alpha  occ. eigenvalues --   -0.40393  -0.40276  -0.39244  -0.39088  -0.36696
 Alpha  occ. eigenvalues --   -0.36501  -0.35130  -0.34442  -0.33977  -0.33375
 Alpha  occ. eigenvalues --   -0.32025  -0.31689  -0.30209  -0.27571
 Alpha virt. eigenvalues --    0.00639   0.01302   0.02092   0.02473   0.03855
 Alpha virt. eigenvalues --    0.04294   0.04458   0.05062   0.05729   0.06347
 Alpha virt. eigenvalues --    0.06975   0.07435   0.07861   0.08489   0.09228
 Alpha virt. eigenvalues --    0.09322   0.10168   0.10960   0.11343   0.11584
 Alpha virt. eigenvalues --    0.12452   0.12861   0.13328   0.13920   0.14349
 Alpha virt. eigenvalues --    0.15304   0.15730   0.16471   0.16574   0.16849
 Alpha virt. eigenvalues --    0.17263   0.18374   0.18913   0.19019   0.19543
 Alpha virt. eigenvalues --    0.20244   0.20592   0.21190   0.21738   0.22747
 Alpha virt. eigenvalues --    0.22944   0.23240   0.23536   0.23712   0.24486
 Alpha virt. eigenvalues --    0.24839   0.25468   0.26066   0.26854   0.27481
 Alpha virt. eigenvalues --    0.28193   0.28514   0.28844   0.29408   0.30223
 Alpha virt. eigenvalues --    0.30786   0.31790   0.32293   0.33201   0.33901
 Alpha virt. eigenvalues --    0.34161   0.34879   0.35479   0.36171   0.36558
 Alpha virt. eigenvalues --    0.38084   0.38466   0.39359   0.39768   0.42209
 Alpha virt. eigenvalues --    0.42957   0.43409   0.46810   0.49188   0.53110
 Alpha virt. eigenvalues --    0.62355   0.63247   0.65409   0.65499   0.66518
 Alpha virt. eigenvalues --    0.68324   0.68650   0.70542   0.71961   0.72305
 Alpha virt. eigenvalues --    0.73270   0.73873   0.76081   0.76954   0.77317
 Alpha virt. eigenvalues --    0.78298   0.79634   0.81419   0.82061   0.84356
 Alpha virt. eigenvalues --    0.85024   0.86853   0.88569   0.90451   0.92752
 Alpha virt. eigenvalues --    0.94981   0.96807   0.97809   0.98818   0.98869
 Alpha virt. eigenvalues --    1.00339   1.01471   1.02433   1.03890   1.04444
 Alpha virt. eigenvalues --    1.05133   1.07108   1.09654   1.11394   1.11691
 Alpha virt. eigenvalues --    1.12408   1.14179   1.14737   1.15252   1.16247
 Alpha virt. eigenvalues --    1.17359   1.18551   1.19845   1.20817   1.21540
 Alpha virt. eigenvalues --    1.23940   1.24675   1.27283   1.29035   1.33755
 Alpha virt. eigenvalues --    1.34848   1.38529   1.40464   1.42067   1.44478
 Alpha virt. eigenvalues --    1.45905   1.51067   1.52897   1.55661   1.59049
 Alpha virt. eigenvalues --    1.59391   1.61259   1.63778   1.64234   1.66561
 Alpha virt. eigenvalues --    1.72241   1.74102   1.75321   1.78645   1.80373
 Alpha virt. eigenvalues --    1.82720   1.83241   1.85064   1.86958   1.87220
 Alpha virt. eigenvalues --    1.88100   1.89288   1.91195   1.91970   1.93138
 Alpha virt. eigenvalues --    1.95092   1.96482   1.98470   1.99842   2.03163
 Alpha virt. eigenvalues --    2.05180   2.05394   2.06978   2.08202   2.08589
 Alpha virt. eigenvalues --    2.10388   2.11930   2.13950   2.15086   2.15145
 Alpha virt. eigenvalues --    2.16133   2.16857   2.17655   2.18559   2.20019
 Alpha virt. eigenvalues --    2.20781   2.21803   2.23745   2.25524   2.29554
 Alpha virt. eigenvalues --    2.32176   2.34009   2.35454   2.36473   2.38544
 Alpha virt. eigenvalues --    2.39643   2.39885   2.41319   2.41984   2.44567
 Alpha virt. eigenvalues --    2.46766   2.50643   2.53048   2.54036   2.56092
 Alpha virt. eigenvalues --    2.58015   2.60611   2.61412   2.63636   2.64892
 Alpha virt. eigenvalues --    2.67378   2.68501   2.69344   2.72027   2.72601
 Alpha virt. eigenvalues --    2.73429   2.74763   2.76219   2.77636   2.78075
 Alpha virt. eigenvalues --    2.80911   2.81533   2.82515   2.83290   2.86160
 Alpha virt. eigenvalues --    2.86666   2.89358   2.90719   2.91681   2.92868
 Alpha virt. eigenvalues --    2.93770   2.94715   2.95567   2.96246   2.97116
 Alpha virt. eigenvalues --    2.99358   3.05714   3.07130   3.14261   3.29109
 Alpha virt. eigenvalues --    3.29839   3.30308   3.36187   3.36907   3.38458
 Alpha virt. eigenvalues --    3.40684   3.42717   3.46894   3.48476   3.50704
 Alpha virt. eigenvalues --    3.52112   3.52373   3.53393   3.56024   3.56325
 Alpha virt. eigenvalues --    3.57746   3.58940   3.61240   3.64268   4.36868
 Alpha virt. eigenvalues --    4.44922   4.49330   4.52110   4.55648   4.63043
 Alpha virt. eigenvalues --    4.66709   4.76125   4.82436   4.87745   4.90347
          Condensed to atoms (all electrons):
              1          2          3          4          5          6
     1  C    6.207399  -0.448527  -0.202372   0.062881  -0.135957  -0.034583
     2  C   -0.448527   7.433786  -0.423991  -0.768511   0.233805  -0.481132
     3  C   -0.202372  -0.423991   6.882966  -1.327255  -0.066934   0.414060
     4  C    0.062881  -0.768511  -1.327255  10.257799  -0.157413  -0.945513
     5  C   -0.135957   0.233805  -0.066934  -0.157413   6.203341   0.058053
     6  C   -0.034583  -0.481132   0.414060  -0.945513   0.058053   6.847836
     7  C    0.189372   0.037646  -0.087889   0.103131  -0.078011  -0.125096
     8  O    0.008836   0.344380   0.037900  -0.130478   0.025396  -0.158327
     9  C    0.080574   0.140079   0.868233  -2.660789  -0.141963   0.490339
    10  C    0.016999  -0.061190  -0.191821   0.549191  -0.069917  -0.110492
    11  C    0.013254  -0.125185  -0.159913   0.617177   0.005218  -0.165678
    12  H    0.255646   0.039091   0.037184  -0.010641  -0.016367   0.005236
    13  H    0.038609   0.414072  -0.019910   0.060500  -0.029678  -0.127446
    14  H    0.037502   0.030165   0.300256  -0.044280   0.042138  -0.007715
    15  H    0.027854   0.002815   0.405468  -0.025645  -0.100703  -0.037611
    16  H    0.028551   0.014805  -0.028648   0.376866  -0.060448  -0.062536
    17  H    0.015155  -0.009670  -0.055353   0.051863   0.346592  -0.048334
    18  H   -0.097295  -0.010246  -0.089318   0.043864   0.437470   0.040589
    19  H    0.034717  -0.037411  -0.016629   0.050251  -0.050990   0.324952
    20  H   -0.059703  -0.080968  -0.010916   0.033263   0.035926   0.413336
    21  H   -0.087871   0.005878  -0.010407  -0.005687   0.033384   0.002246
    22  H   -0.074798   0.021135  -0.000138   0.011252  -0.011626  -0.015609
    23  H   -0.095240  -0.011934   0.009174  -0.005928   0.004957   0.032021
    24  H   -0.002876   0.099849   0.008523  -0.177260  -0.005571   0.039845
    25  H    0.004872   0.010707   0.013550  -0.119127   0.000426  -0.007009
    26  H    0.001429  -0.004214   0.004104  -0.024974  -0.000668  -0.003519
    27  H   -0.000554   0.018735  -0.011845   0.016984  -0.002185  -0.001770
    28  H   -0.000219   0.001085  -0.004132   0.043220   0.000093   0.000183
    29  H    0.002829   0.032584   0.004812  -0.060114  -0.000343  -0.003340
    30  H   -0.003369  -0.021386   0.000097   0.012757   0.005601   0.010799
    31  H   -0.000065  -0.011573   0.004499   0.044183   0.000408   0.000007
              7          8          9         10         11         12
     1  C    0.189372   0.008836   0.080574   0.016999   0.013254   0.255646
     2  C    0.037646   0.344380   0.140079  -0.061190  -0.125185   0.039091
     3  C   -0.087889   0.037900   0.868233  -0.191821  -0.159913   0.037184
     4  C    0.103131  -0.130478  -2.660789   0.549191   0.617177  -0.010641
     5  C   -0.078011   0.025396  -0.141963  -0.069917   0.005218  -0.016367
     6  C   -0.125096  -0.158327   0.490339  -0.110492  -0.165678   0.005236
     7  C    5.353504  -0.000642  -0.019813   0.002927   0.003952  -0.018886
     8  O   -0.000642   8.228734   0.030608  -0.056635  -0.030907  -0.000739
     9  C   -0.019813   0.030608   8.564671  -0.650750  -0.592643  -0.000333
    10  C    0.002927  -0.056635  -0.650750   5.703527   0.099825   0.000218
    11  C    0.003952  -0.030907  -0.592643   0.099825   5.608041   0.000107
    12  H   -0.018886  -0.000739  -0.000333   0.000218   0.000107   0.574043
    13  H    0.007015  -0.044870  -0.088521   0.014429   0.032231  -0.000127
    14  H   -0.000283  -0.000335  -0.028920  -0.010693   0.008768  -0.000132
    15  H    0.010795  -0.000362   0.025292   0.008547  -0.005943  -0.000084
    16  H    0.002761  -0.002622  -0.041268   0.034924   0.007078  -0.000093
    17  H    0.012988  -0.000068   0.004239   0.002670  -0.000146  -0.006074
    18  H    0.006035   0.000087  -0.007892   0.000273  -0.000766  -0.001784
    19  H    0.013997  -0.000733  -0.002588   0.003363   0.001875  -0.006187
    20  H   -0.001494   0.001501  -0.001555  -0.001123   0.001150  -0.002357
    21  H    0.421271  -0.000101  -0.000347  -0.000133  -0.000057  -0.003692
    22  H    0.425026  -0.000364  -0.001797   0.000135   0.001440   0.004836
    23  H    0.425172   0.000032  -0.000226  -0.000027  -0.000231  -0.004012
    24  H    0.000272   0.214775   0.121491  -0.015220  -0.045943   0.000004
    25  H    0.000067   0.000015   0.372395  -0.025474   0.020265   0.000000
    26  H    0.000065   0.000472  -0.035894   0.412857   0.000399   0.000000
    27  H    0.000042  -0.000147  -0.134358   0.473816   0.003328   0.000000
    28  H   -0.000018   0.000289  -0.153109   0.462797   0.005018   0.000000
    29  H    0.000087  -0.003038  -0.038531  -0.005435   0.412427   0.000000
    30  H    0.000256  -0.000019  -0.047809  -0.005003   0.409289   0.000000
    31  H   -0.000126   0.000353  -0.127308  -0.000930   0.451772   0.000000
             13         14         15         16         17         18
     1  C    0.038609   0.037502   0.027854   0.028551   0.015155  -0.097295
     2  C    0.414072   0.030165   0.002815   0.014805  -0.009670  -0.010246
     3  C   -0.019910   0.300256   0.405468  -0.028648  -0.055353  -0.089318
     4  C    0.060500  -0.044280  -0.025645   0.376866   0.051863   0.043864
     5  C   -0.029678   0.042138  -0.100703  -0.060448   0.346592   0.437470
     6  C   -0.127446  -0.007715  -0.037611  -0.062536  -0.048334   0.040589
     7  C    0.007015  -0.000283   0.010795   0.002761   0.012988   0.006035
     8  O   -0.044870  -0.000335  -0.000362  -0.002622  -0.000068   0.000087
     9  C   -0.088521  -0.028920   0.025292  -0.041268   0.004239  -0.007892
    10  C    0.014429  -0.010693   0.008547   0.034924   0.002670   0.000273
    11  C    0.032231   0.008768  -0.005943   0.007078  -0.000146  -0.000766
    12  H   -0.000127  -0.000132  -0.000084  -0.000093  -0.006074  -0.001784
    13  H    0.600910  -0.000132   0.002375   0.004879   0.000064   0.000003
    14  H   -0.000132   0.551703  -0.030146  -0.004077  -0.004918  -0.002455
    15  H    0.002375  -0.030146   0.549581   0.004728   0.004562  -0.003354
    16  H    0.004879  -0.004077   0.004728   0.559654   0.002812   0.000052
    17  H    0.000064  -0.004918   0.004562   0.002812   0.545308  -0.027453
    18  H    0.000003  -0.002455  -0.003354   0.000052  -0.027453   0.552866
    19  H    0.004752  -0.000042   0.000075   0.003006   0.002197  -0.000022
    20  H   -0.005341   0.000010  -0.000009   0.000024  -0.000037  -0.000124
    21  H    0.000149   0.000002  -0.000034   0.000001  -0.000130   0.000076
    22  H   -0.002072  -0.000036  -0.001295  -0.000038  -0.000083  -0.000071
    23  H   -0.000001  -0.000018   0.000189   0.000002   0.000066   0.002938
    24  H   -0.008731  -0.000003   0.000015   0.000082   0.000002   0.000000
    25  H    0.000020   0.004351  -0.000471  -0.000619   0.000003  -0.000016
    26  H    0.000135  -0.000003  -0.000004  -0.000222   0.000000   0.000000
    27  H   -0.000005   0.000041   0.000000   0.003127   0.000001   0.000000
    28  H    0.000014  -0.000011   0.000003   0.000244   0.000000   0.000000
    29  H   -0.001771  -0.000004   0.000084   0.000005   0.000000   0.000000
    30  H   -0.000370   0.000107   0.001054  -0.000022  -0.000001   0.000005
    31  H    0.000145  -0.000008  -0.000054  -0.000075   0.000000   0.000000
             19         20         21         22         23         24
     1  C    0.034717  -0.059703  -0.087871  -0.074798  -0.095240  -0.002876
     2  C   -0.037411  -0.080968   0.005878   0.021135  -0.011934   0.099849
     3  C   -0.016629  -0.010916  -0.010407  -0.000138   0.009174   0.008523
     4  C    0.050251   0.033263  -0.005687   0.011252  -0.005928  -0.177260
     5  C   -0.050990   0.035926   0.033384  -0.011626   0.004957  -0.005571
     6  C    0.324952   0.413336   0.002246  -0.015609   0.032021   0.039845
     7  C    0.013997  -0.001494   0.421271   0.425026   0.425172   0.000272
     8  O   -0.000733   0.001501  -0.000101  -0.000364   0.000032   0.214775
     9  C   -0.002588  -0.001555  -0.000347  -0.001797  -0.000226   0.121491
    10  C    0.003363  -0.001123  -0.000133   0.000135  -0.000027  -0.015220
    11  C    0.001875   0.001150  -0.000057   0.001440  -0.000231  -0.045943
    12  H   -0.006187  -0.002357  -0.003692   0.004836  -0.004012   0.000004
    13  H    0.004752  -0.005341   0.000149  -0.002072  -0.000001  -0.008731
    14  H   -0.000042   0.000010   0.000002  -0.000036  -0.000018  -0.000003
    15  H    0.000075  -0.000009  -0.000034  -0.001295   0.000189   0.000015
    16  H    0.003006   0.000024   0.000001  -0.000038   0.000002   0.000082
    17  H    0.002197  -0.000037  -0.000130  -0.000083   0.000066   0.000002
    18  H   -0.000022  -0.000124   0.000076  -0.000071   0.002938   0.000000
    19  H    0.529003  -0.026501   0.000060  -0.000110  -0.000121  -0.000010
    20  H   -0.026501   0.534108   0.002841  -0.000143   0.000052  -0.000153
    21  H    0.000060   0.002841   0.530101  -0.027998  -0.024570  -0.000001
    22  H   -0.000110  -0.000143  -0.027998   0.540420  -0.028289   0.000011
    23  H   -0.000121   0.000052  -0.024570  -0.028289   0.531887   0.000000
    24  H   -0.000010  -0.000153  -0.000001   0.000011   0.000000   0.408840
    25  H   -0.000002   0.000002   0.000000   0.000000   0.000000   0.000025
    26  H    0.000004   0.000002   0.000000   0.000000   0.000000   0.003048
    27  H    0.000001   0.000000   0.000000   0.000000   0.000000  -0.000042
    28  H    0.000000   0.000000   0.000000   0.000000   0.000000   0.000024
    29  H   -0.000002   0.000002   0.000000  -0.000004   0.000000   0.004275
    30  H   -0.000001   0.000000   0.000001   0.000027   0.000000   0.000037
    31  H    0.000000   0.000000   0.000000   0.000000   0.000000  -0.000085
             25         26         27         28         29         30
     1  C    0.004872   0.001429  -0.000554  -0.000219   0.002829  -0.003369
     2  C    0.010707  -0.004214   0.018735   0.001085   0.032584  -0.021386
     3  C    0.013550   0.004104  -0.011845  -0.004132   0.004812   0.000097
     4  C   -0.119127  -0.024974   0.016984   0.043220  -0.060114   0.012757
     5  C    0.000426  -0.000668  -0.002185   0.000093  -0.000343   0.005601
     6  C   -0.007009  -0.003519  -0.001770   0.000183  -0.003340   0.010799
     7  C    0.000067   0.000065   0.000042  -0.000018   0.000087   0.000256
     8  O    0.000015   0.000472  -0.000147   0.000289  -0.003038  -0.000019
     9  C    0.372395  -0.035894  -0.134358  -0.153109  -0.038531  -0.047809
    10  C   -0.025474   0.412857   0.473816   0.462797  -0.005435  -0.005003
    11  C    0.020265   0.000399   0.003328   0.005018   0.412427   0.409289
    12  H    0.000000   0.000000   0.000000   0.000000   0.000000   0.000000
    13  H    0.000020   0.000135  -0.000005   0.000014  -0.001771  -0.000370
    14  H    0.004351  -0.000003   0.000041  -0.000011  -0.000004   0.000107
    15  H   -0.000471  -0.000004   0.000000   0.000003   0.000084   0.001054
    16  H   -0.000619  -0.000222   0.003127   0.000244   0.000005  -0.000022
    17  H    0.000003   0.000000   0.000001   0.000000   0.000000  -0.000001
    18  H   -0.000016   0.000000   0.000000   0.000000   0.000000   0.000005
    19  H   -0.000002   0.000004   0.000001   0.000000  -0.000002  -0.000001
    20  H    0.000002   0.000002   0.000000   0.000000   0.000002   0.000000
    21  H    0.000000   0.000000   0.000000   0.000000   0.000000   0.000001
    22  H    0.000000   0.000000   0.000000   0.000000  -0.000004   0.000027
    23  H    0.000000   0.000000   0.000000   0.000000   0.000000   0.000000
    24  H    0.000025   0.003048  -0.000042   0.000024   0.004275   0.000037
    25  H    0.582288   0.004972  -0.004134  -0.003734   0.005103  -0.003456
    26  H    0.004972   0.543222  -0.026957  -0.028950   0.002497  -0.000038
    27  H   -0.004134  -0.026957   0.526193  -0.025577   0.000014  -0.000128
    28  H   -0.003734  -0.028950  -0.025577   0.540642  -0.000236   0.000067
    29  H    0.005103   0.002497   0.000014  -0.000236   0.562106  -0.029462
    30  H   -0.003456  -0.000038  -0.000128   0.000067  -0.029462   0.528184
    31  H   -0.004181  -0.000094   0.000065   0.002843  -0.028064  -0.025099
             31
     1  C   -0.000065
     2  C   -0.011573
     3  C    0.004499
     4  C    0.044183
     5  C    0.000408
     6  C    0.000007
     7  C   -0.000126
     8  O    0.000353
     9  C   -0.127308
    10  C   -0.000930
    11  C    0.451772
    12  H    0.000000
    13  H    0.000145
    14  H   -0.000008
    15  H   -0.000054
    16  H   -0.000075
    17  H    0.000000
    18  H    0.000000
    19  H    0.000000
    20  H    0.000000
    21  H    0.000000
    22  H    0.000000
    23  H    0.000000
    24  H   -0.000085
    25  H   -0.004181
    26  H   -0.000094
    27  H    0.000065
    28  H    0.002843
    29  H   -0.028064
    30  H   -0.025099
    31  H    0.523150
 Mulliken atomic charges:
              1
     1  C    0.216949
     2  C   -0.384679
     3  C   -0.283352
     4  C    0.128435
     5  C   -0.504035
     6  C   -0.343792
     7  C   -0.684121
     8  O   -0.462992
     9  C    0.078491
    10  C   -0.581655
    11  C   -0.575202
    12  H    0.155144
    13  H    0.148671
    14  H    0.159169
    15  H    0.162277
    16  H    0.157066
    17  H    0.163745
    18  H    0.156538
    19  H    0.173095
    20  H    0.168207
    21  H    0.165013
    22  H    0.160189
    23  H    0.164108
    24  H    0.354776
    25  H    0.149161
    26  H    0.152334
    27  H    0.165354
    28  H    0.159465
    29  H    0.143519
    30  H    0.167881
    31  H    0.170236
 Sum of Mulliken atomic charges =   0.00000
 Mulliken charges with hydrogens summed into heavy atoms:
              1
     1  C    0.372093
     2  C   -0.236008
     3  C    0.038094
     4  C    0.285501
     5  C   -0.183751
     6  C   -0.002490
     7  C   -0.194810
     8  O   -0.108215
     9  C    0.227653
    10  C   -0.104501
    11  C   -0.093566
 Sum of Mulliken charges with hydrogens summed into heavy atoms =   0.00000
 Electronic spatial extent (au):  <R**2>=           2066.2678
 Charge=              0.0000 electrons
 Dipole moment (field-independent basis, Debye):
    X=             -0.1819    Y=             -1.7487    Z=              0.9078  Tot=              1.9786
 Quadrupole moment (field-independent basis, Debye-Ang):
   XX=            -68.8661   YY=            -76.8576   ZZ=            -71.4660
   XY=              0.2887   XZ=             -2.1025   YZ=              2.5514
 Traceless Quadrupole moment (field-independent basis, Debye-Ang):
   XX=              3.5305   YY=             -4.4610   ZZ=              0.9306
   XY=              0.2887   XZ=             -2.1025   YZ=              2.5514
 Octapole moment (field-independent basis, Debye-Ang**2):
  XXX=             -5.0957  YYY=             -7.3058  ZZZ=             -3.4307  XYY=             -1.0760
  XXY=              5.4407  XXZ=              2.3832  XZZ=             -1.4857  YZZ=              2.8277
  YYZ=              5.6202  XYZ=             -3.9249
 Hexadecapole moment (field-independent basis, Debye-Ang**3):
 XXXX=          -1811.1401 YYYY=           -651.9935 ZZZZ=           -420.6308 XXXY=             -6.1008
 XXXZ=            -17.0801 YYYX=             -6.4027 YYYZ=             15.0595 ZZZX=             -2.1772
 ZZZY=              1.2557 XXYY=           -388.1538 XXZZ=           -380.5723 YYZZ=           -171.3317
 XXYZ=              5.0935 YYXZ=             -6.8729 ZZXY=              0.1078
 N-N= 6.956823465368D+02 E-N=-2.476600849936D+03  KE= 4.636973789213D+02
 1\1\GINC-COMPUTE-10-6\SP\RmPW1PW91\6-31+G(d,p)\C10H20O1\ASAROTTI.IQUIR
 \19-Sep-2024\0\\# mPW1PW91/6-31+G** nmr scrf=(pcm,solvent=benzene)\\co
 mment\\0,1\C,0,2.424033,0.097929,-0.289718\C,0,0.029874,0.93547,0.1508
 06\C,0,0.425016,-1.508841,-0.287843\C,0,-0.567359,-0.340292,-0.483159\
 C,0,1.816251,-1.19903,-0.861561\C,0,1.410519,1.250588,-0.435045\C,0,2.
 92631,-0.073649,1.154413\O,0,-0.764644,2.107091,-0.075283\C,0,-1.99827
 3,-0.728123,-0.000422\C,0,-3.10916,0.013523,-0.764994\C,0,-2.200304,-0
 .609296,1.520737\H,0,3.300908,0.35417,-0.901077\H,0,0.13404,0.774008,1
 .235337\H,0,0.022177,-2.408549,-0.771252\H,0,0.505117,-1.751519,0.7816
 21\H,0,-0.634889,-0.144347,-1.564624\H,0,1.728137,-1.096373,-1.952756\
 H,0,2.49441,-2.044155,-0.68281\H,0,1.270678,1.486132,-1.499245\H,0,1.7
 8967,2.163733,0.039895\H,0,3.37291,0.856827,1.524806\H,0,2.12579,-0.35
 1509,1.849292\H,0,3.692552,-0.856488,1.208127\H,0,-1.534608,2.061894,0
 .509999\H,0,-2.116156,-1.794176,-0.246324\H,0,-3.056428,1.097301,-0.62
 178\H,0,-3.030416,-0.169844,-1.842898\H,0,-4.100509,-0.324708,-0.43903
 5\H,0,-2.203877,0.435524,1.859477\H,0,-1.419305,-1.133598,2.082954\H,0
 ,-3.164496,-1.040714,1.813273\\Version=AM64L-G09RevC.01\State=1-A\HF=-
 468.2792747\RMSD=9.178e-09\Dipole=-0.0715798,-0.6879792,0.3571492\Quad
 rupole=2.6248275,-3.316675,0.6918474,0.2146452,-1.563165,1.8968965\PG=
 C01 [X(C10H20O1)]\\@


 A MAN IS NEVER SO BRILLIANT AS WHEN HE TAKES THE WORDS RIGHT OUT
 OF YOUR MOUTH. -- ARNOT SHEPPARD, JR.
 Job cpu time:  0 days  0 hours 11 minutes 50.5 seconds.
 File lengths (MBytes):  RWF=    120 Int=      0 D2E=      0 Chk=      7 Scr=      1
 Normal termination of Gaussian 09 at Thu Sep 19 08:54:24 2024.
