 Entering Gaussian System, Link 0=g09
 Input=/home/asarotti.iquir/SCF2/03_Mentol04_OptB_NMR_benzene.gjc
 Output=/home/asarotti.iquir/SCF2/03_Mentol04_OptB_NMR_benzene.log
 Initial command:
 /opt/ohpc/pub/apps/software/Gaussian/09/AMD64.SSE4a-enabled/g09/l1.exe /local/asarotti.iquir/Gau-1839349.inp -scrdir=/local/asarotti.iquir/
 Entering Link 1 = /opt/ohpc/pub/apps/software/Gaussian/09/AMD64.SSE4a-enabled/g09/l1.exe PID=   1839350.
  
 Copyright (c) 1988,1990,1992,1993,1995,1998,2003,2009,2011,
            Gaussian, Inc.  All Rights Reserved.
  
 This is part of the Gaussian(R) 09 program.  It is based on
 the Gaussian(R) 03 system (copyright 2003, Gaussian, Inc.),
 the Gaussian(R) 98 system (copyright 1998, Gaussian, Inc.),
 the Gaussian(R) 94 system (copyright 1995, Gaussian, Inc.),
 the Gaussian 92(TM) system (copyright 1992, Gaussian, Inc.),
 the Gaussian 90(TM) system (copyright 1990, Gaussian, Inc.),
 the Gaussian 88(TM) system (copyright 1988, Gaussian, Inc.),
 the Gaussian 86(TM) system (copyright 1986, Carnegie Mellon
 University), and the Gaussian 82(TM) system (copyright 1983,
 Carnegie Mellon University). Gaussian is a federally registered
 trademark of Gaussian, Inc.
  
 This software contains proprietary and confidential information,
 including trade secrets, belonging to Gaussian, Inc.
  
 This software is provided under written license and may be
 used, copied, transmitted, or stored only in accord with that
 written license.
  
 The following legend is applicable only to US Government
 contracts under FAR:
  
                    RESTRICTED RIGHTS LEGEND
  
 Use, reproduction and disclosure by the US Government is
 subject to restrictions as set forth in subparagraphs (a)
 and (c) of the Commercial Computer Software - Restricted
 Rights clause in FAR 52.227-19.
  
 Gaussian, Inc.
 340 Quinnipiac St., Bldg. 40, Wallingford CT 06492
  
  
 ---------------------------------------------------------------
 Warning -- This program may not be used in any manner that
 competes with the business of Gaussian, Inc. or will provide
 assistance to any competitor of Gaussian, Inc.  The licensee
 of this program is prohibited from giving any competitor of
 Gaussian, Inc. access to this program.  By using this program,
 the user acknowledges that Gaussian, Inc. is engaged in the
 business of creating and licensing software in the field of
 computational chemistry and represents and warrants to the
 licensee that it is not a competitor of Gaussian, Inc. and that
 it will not use this program in any manner prohibited above.
 ---------------------------------------------------------------
  

 Cite this work as:
 Gaussian 09, Revision C.01,
 M. J. Frisch, G. W. Trucks, H. B. Schlegel, G. E. Scuseria, 
 M. A. Robb, J. R. Cheeseman, G. Scalmani, V. Barone, B. Mennucci, 
 G. A. Petersson, H. Nakatsuji, M. Caricato, X. Li, H. P. Hratchian, 
 A. F. Izmaylov, J. Bloino, G. Zheng, J. L. Sonnenberg, M. Hada, 
 M. Ehara, K. Toyota, R. Fukuda, J. Hasegawa, M. Ishida, T. Nakajima, 
 Y. Honda, O. Kitao, H. Nakai, T. Vreven, J. A. Montgomery, Jr., 
 J. E. Peralta, F. Ogliaro, M. Bearpark, J. J. Heyd, E. Brothers, 
 K. N. Kudin, V. N. Staroverov, T. Keith, R. Kobayashi, J. Normand, 
 K. Raghavachari, A. Rendell, J. C. Burant, S. S. Iyengar, J. Tomasi, 
 M. Cossi, N. Rega, J. M. Millam, M. Klene, J. E. Knox, J. B. Cross, 
 V. Bakken, C. Adamo, J. Jaramillo, R. Gomperts, R. E. Stratmann, 
 O. Yazyev, A. J. Austin, R. Cammi, C. Pomelli, J. W. Ochterski, 
 R. L. Martin, K. Morokuma, V. G. Zakrzewski, G. A. Voth, 
 P. Salvador, J. J. Dannenberg, S. Dapprich, A. D. Daniels, 
 O. Farkas, J. B. Foresman, J. V. Ortiz, J. Cioslowski, 
 and D. J. Fox, Gaussian, Inc., Wallingford CT, 2010.
 
 ******************************************
 Gaussian 09:  AM64L-G09RevC.01 23-Sep-2011
                19-Sep-2024 
 ******************************************
 %nprocshared=4
 Will use up to    4 processors via shared memory.
 %mem=100mw
 --------------------------------------------------
 # mPW1PW91/6-31+G** nmr scrf=(pcm,solvent=benzene)
 --------------------------------------------------
 1/38=1/1;
 2/12=2,17=6,18=5,40=1/2;
 3/5=1,6=6,7=111,11=2,16=1,25=1,30=1,70=2201,72=12,74=-7/1,2,8,3;
 4//1;
 5/5=2,38=5,53=12/2;
 8/6=1,10=90,11=11/1;
 10/13=100,45=16/2;
 6/7=2,8=2,9=2,10=2,28=1/1;
 99/9=1/99;
 -------
 comment
 -------
 Charge =  0 Multiplicity = 1
 Symbolic Z-Matrix:
 6                    -2.22811   0.0226    0.21609 
 6                     0.08688  -1.04425  -0.08623 
 6                    -0.12732   1.4648    0.1316 
 6                     0.66828   0.31625  -0.51783 
 6                    -1.62527   1.37671  -0.19742 
 6                    -1.41534  -1.12367  -0.41009 
 6                    -3.71413  -0.07829  -0.14479 
 8                     0.31656  -1.21329   1.32021 
 6                     2.20862   0.48145  -0.37642 
 6                     2.97781  -0.64017  -1.09295 
 6                     2.72593   0.64735   1.06286 
 1                    -2.12974  -0.06437   1.30773 
 1                     0.60295  -1.84625  -0.63687 
 1                     0.27626   2.42764  -0.20986 
 1                     0.00366   1.43356   1.21923 
 1                     0.47065   0.36476  -1.60174 
 1                    -1.77276   1.51799  -1.28001 
 1                    -2.16955   2.19218   0.29787 
 1                    -1.54086  -1.11079  -1.50325 
 1                    -1.80802  -2.09547  -0.0717 
 1                    -3.86246   0.00029  -1.22983 
 1                    -4.14147  -1.03511   0.17993 
 1                    -4.29286   0.72421   0.3283 
 1                    -0.09521  -2.05162   1.58244 
 1                     2.43909   1.41795  -0.90886 
 1                     2.8794   -1.59538  -0.56357 
 1                     2.62238  -0.78523  -2.12111 
 1                     4.04731  -0.40379  -1.14102 
 1                     2.52659  -0.24563   1.66072 
 1                     2.25946   1.49923   1.5689 
 1                     3.8086    0.82545   1.05207 
 
                          Input orientation:                          
 ---------------------------------------------------------------------
 Center     Atomic      Atomic             Coordinates (Angstroms)
 Number     Number       Type             X           Y           Z
 ---------------------------------------------------------------------
      1          6           0       -2.228108    0.022604    0.216088
      2          6           0        0.086884   -1.044250   -0.086231
      3          6           0       -0.127323    1.464797    0.131599
      4          6           0        0.668276    0.316246   -0.517832
      5          6           0       -1.625274    1.376712   -0.197415
      6          6           0       -1.415335   -1.123665   -0.410092
      7          6           0       -3.714131   -0.078286   -0.144788
      8          8           0        0.316559   -1.213286    1.320213
      9          6           0        2.208621    0.481449   -0.376424
     10          6           0        2.977813   -0.640172   -1.092946
     11          6           0        2.725926    0.647346    1.062865
     12          1           0       -2.129737   -0.064372    1.307728
     13          1           0        0.602949   -1.846250   -0.636873
     14          1           0        0.276261    2.427637   -0.209863
     15          1           0        0.003659    1.433558    1.219229
     16          1           0        0.470653    0.364757   -1.601742
     17          1           0       -1.772762    1.517991   -1.280005
     18          1           0       -2.169552    2.192177    0.297871
     19          1           0       -1.540858   -1.110788   -1.503247
     20          1           0       -1.808016   -2.095475   -0.071702
     21          1           0       -3.862459    0.000288   -1.229834
     22          1           0       -4.141470   -1.035107    0.179933
     23          1           0       -4.292858    0.724214    0.328304
     24          1           0       -0.095207   -2.051623    1.582435
     25          1           0        2.439086    1.417945   -0.908861
     26          1           0        2.879396   -1.595382   -0.563574
     27          1           0        2.622381   -0.785233   -2.121112
     28          1           0        4.047313   -0.403788   -1.141018
     29          1           0        2.526586   -0.245626    1.660716
     30          1           0        2.259459    1.499225    1.568904
     31          1           0        3.808602    0.825452    1.052069
 ---------------------------------------------------------------------
                    Distance matrix (angstroms):
                    1          2          3          4          5
     1  C    0.000000
     2  C    2.566858   0.000000
     3  C    2.549580   2.527578   0.000000
     4  C    3.002317   1.541183   1.540749   0.000000
     5  C    1.538831   2.967306   1.536186   2.547082   0.000000
     6  C    1.538387   1.538783   2.941520   2.535032   2.518172
     7  C    1.532539   3.922274   3.914420   4.415915   2.546196
     8  O    3.036749   1.435064   2.963438   2.416937   3.575192
     9  C    4.499575   2.629399   2.584897   1.555619   3.941103
    10  C    5.408739   3.087754   3.946172   2.565044   5.104724
    11  C    5.064562   3.338632   3.110709   2.615751   4.588379
    12  H    1.099509   2.795835   2.780521   3.362501   2.143983
    13  H    3.497862   1.101242   3.476619   2.166755   3.942789
    14  H    3.498211   3.479245   1.098425   2.169445   2.172656
    15  H    2.824512   2.801907   1.095934   2.169673   2.159522
    16  H    3.271832   2.104603   2.138255   1.102846   2.718289
    17  H    2.163751   3.383557   2.168623   2.825556   1.101687
    18  H    2.171903   3.964025   2.174265   3.498250   1.098422
    19  H    2.170945   2.159145   3.362208   2.808512   2.810690
    20  H    2.178430   2.167010   3.942283   3.485320   3.479264
    21  H    2.182268   4.242193   4.236688   4.597210   2.822309
    22  H    2.186553   4.236733   4.729189   5.044471   3.505782
    23  H    2.183585   4.741460   4.235427   5.049281   2.796093
    24  H    3.273926   1.957653   3.804099   3.255892   4.154811
    25  H    4.999519   3.503138   2.769694   2.121889   4.126364
    26  H    5.414088   2.886126   4.346070   2.923263   5.409202
    27  H    5.444479   3.261376   4.206925   2.757225   5.139765
    28  H    6.434629   4.148224   4.747499   3.510655   6.019868
    29  H    4.976546   3.105120   3.508130   2.918062   4.829345
    30  H    4.914141   3.732133   2.786352   2.878501   4.269197
    31  H    6.146975   4.317719   4.092375   3.547609   5.602866
                    6          7          8          9         10
     6  C    0.000000
     7  C    2.539226   0.000000
     8  O    2.449785   4.436318   0.000000
     9  C    3.963658   5.953650   3.054603   0.000000
    10  C    4.472114   6.782097   3.637866   1.537236   0.000000
    11  C    4.738789   6.592367   3.055033   1.538401   2.523623
    12  H    2.140882   2.149488   2.702688   4.685684   5.672905
    13  H    2.155697   4.690951   2.076740   2.839753   2.702333
    14  H    3.938697   4.712442   3.949567   2.747618   4.182065
    15  H    3.347778   4.238889   2.667187   2.883484   4.300244
    16  H    2.681861   4.453248   3.324423   2.129684   2.748565
    17  H    2.804077   2.757849   4.311180   4.212160   5.221171
    18  H    3.473451   2.781488   4.338561   4.748649   6.037544
    19  H    1.100413   2.763076   3.381188   4.226528   4.561602
    20  H    1.101418   2.776269   2.688774   4.781921   5.105390
    21  H    2.814900   1.097953   5.043778   6.149621   6.871554
    22  H    2.790660   1.097073   4.604998   6.552338   7.242954
    23  H    3.498575   1.096698   5.097501   6.544066   7.532872
    24  H    2.563983   4.469225   0.970114   3.944769   4.311996
    25  H    4.643825   6.378448   4.049354   1.101648   2.135406
    26  H    4.323284   6.778758   3.203558   2.190477   1.096516
    27  H    4.398327   6.675104   4.164464   2.195363   1.097497
    28  H    5.558147   7.831886   4.542188   2.179228   1.096366
    29  H    4.538495   6.498800   2.436499   2.186248   2.818142
    30  H    4.929512   6.411635   3.345807   2.196077   3.489770
    31  H    5.764242   7.670771   4.052495   2.172296   2.727518
                   11         12         13         14         15
    11  C    0.000000
    12  H    4.913651   0.000000
    13  H    3.689737   3.797912   0.000000
    14  H    3.284834   3.781801   4.307572   0.000000
    15  H    2.837837   2.608257   3.815941   1.762047   0.000000
    16  H    3.502320   3.925710   2.415994   2.496115   3.052588
    17  H    5.146383   3.054123   4.168422   2.484181   3.067405
    18  H    5.190128   2.472531   4.986923   2.509031   2.479365
    19  H    5.280285   3.056689   2.426400   4.182728   4.033746
    20  H    5.419127   2.476229   2.488832   4.982152   4.171660
    21  H    7.005853   3.073390   4.868385   4.905239   4.795732
    22  H    7.125401   2.502263   4.882073   5.626623   4.935234
    23  H    7.057536   2.502046   5.613179   4.905927   4.444882
    24  H    3.938677   2.857261   2.335579   4.838811   3.505450
    25  H    2.136306   5.290054   3.755043   2.487145   3.234241
    26  H    2.774651   5.562120   2.291401   4.804800   4.541225
    27  H    3.492952   5.904169   2.721549   4.413580   4.789428
    28  H    2.776337   6.653383   3.768090   4.806750   5.029686
    29  H    1.092960   4.673200   3.397248   3.963504   3.062635
    30  H    1.095155   4.666700   4.336090   2.821176   2.283685
    31  H    1.097281   6.010076   4.501858   4.078836   3.856854
                   16         17         18         19         20
    16  H    0.000000
    17  H    2.542907   0.000000
    18  H    3.730774   1.761154   0.000000
    19  H    2.496620   2.648414   3.814297   0.000000
    20  H    3.685932   3.810299   4.318710   1.757926   0.000000
    21  H    4.364288   2.583171   3.162941   2.588257   3.155032
    22  H    5.138644   3.776309   3.783878   3.098710   2.575404
    23  H    5.152215   3.093158   2.581525   3.780915   3.779562
    24  H    4.037087   4.873387   4.895186   3.535040   2.381556
    25  H    2.337524   4.229352   4.826508   4.752656   5.575198
    26  H    3.274444   5.643486   6.370209   4.544938   4.739606
    27  H    2.494425   5.032850   6.138328   4.221410   5.054229
    28  H    3.687197   6.130728   6.889038   5.644352   6.187901
    29  H    3.904236   5.499325   5.463876   5.225253   5.021154
    30  H    3.813114   4.937149   4.659597   5.540098   5.670786
    31  H    4.289156   6.088498   6.178598   6.236617   6.429702
                   21         22         23         24         25
    21  H    0.000000
    22  H    1.771252   0.000000
    23  H    1.771188   1.772045   0.000000
    24  H    5.129462   4.401427   5.186366   0.000000
    25  H    6.467012   7.106803   6.879746   4.966598   0.000000
    26  H    6.960077   7.082321   7.590599   3.696184   3.064839
    27  H    6.592766   7.148911   7.489900   4.765007   2.521338
    28  H    7.920584   8.318632   8.543404   5.224273   2.441107
    29  H    7.016812   6.875970   7.015749   3.184580   3.062328
    30  H    6.896204   7.023103   6.713612   4.260652   2.485597
    31  H    8.045692   8.211330   8.134355   4.878378   2.464116
                   26         27         28         29         30
    26  H    0.000000
    27  H    1.774351   0.000000
    28  H    1.765607   1.771021   0.000000
    29  H    2.625601   3.821332   3.191761   0.000000
    30  H    3.808986   4.355075   3.763185   1.767566   0.000000
    31  H    3.055186   3.751067   2.525400   1.777983   1.766616
                   31
    31  H    0.000000
 Stoichiometry    C10H20O
 Framework group  C1[X(C10H20O)]
 Deg. of freedom    87
 Full point group                 C1      NOp   1
 Largest Abelian subgroup         C1      NOp   1
 Largest concise Abelian subgroup C1      NOp   1
                         Standard orientation:                         
 ---------------------------------------------------------------------
 Center     Atomic      Atomic             Coordinates (Angstroms)
 Number     Number       Type             X           Y           Z
 ---------------------------------------------------------------------
      1          6           0       -2.228108    0.022604    0.216088
      2          6           0        0.086884   -1.044250   -0.086231
      3          6           0       -0.127323    1.464797    0.131599
      4          6           0        0.668276    0.316246   -0.517832
      5          6           0       -1.625274    1.376712   -0.197415
      6          6           0       -1.415335   -1.123665   -0.410092
      7          6           0       -3.714131   -0.078286   -0.144788
      8          8           0        0.316559   -1.213286    1.320213
      9          6           0        2.208621    0.481449   -0.376424
     10          6           0        2.977813   -0.640172   -1.092946
     11          6           0        2.725926    0.647346    1.062865
     12          1           0       -2.129737   -0.064372    1.307728
     13          1           0        0.602949   -1.846250   -0.636873
     14          1           0        0.276261    2.427637   -0.209863
     15          1           0        0.003659    1.433558    1.219229
     16          1           0        0.470653    0.364757   -1.601742
     17          1           0       -1.772762    1.517991   -1.280005
     18          1           0       -2.169552    2.192177    0.297871
     19          1           0       -1.540858   -1.110788   -1.503247
     20          1           0       -1.808016   -2.095475   -0.071702
     21          1           0       -3.862459    0.000288   -1.229834
     22          1           0       -4.141470   -1.035107    0.179933
     23          1           0       -4.292858    0.724214    0.328304
     24          1           0       -0.095207   -2.051623    1.582435
     25          1           0        2.439086    1.417945   -0.908861
     26          1           0        2.879396   -1.595382   -0.563574
     27          1           0        2.622381   -0.785233   -2.121112
     28          1           0        4.047313   -0.403788   -1.141018
     29          1           0        2.526586   -0.245626    1.660716
     30          1           0        2.259459    1.499225    1.568904
     31          1           0        3.808602    0.825452    1.052069
 ---------------------------------------------------------------------
 Rotational constants (GHZ):      2.0624750      0.6581926      0.6095679
 Standard basis: 6-31+G(d,p) (6D, 7F)
 There are   309 symmetry adapted basis functions of A   symmetry.
 Integral buffers will be    131072 words long.
 Raffenetti 2 integral format.
 Two-electron integral symmetry is turned on.
   309 basis functions,   492 primitive gaussians,   309 cartesian basis functions
    44 alpha electrons       44 beta electrons
       nuclear repulsion energy       694.3577356028 Hartrees.
 NAtoms=   31 NActive=   31 NUniq=   31 SFac= 1.00D+00 NAtFMM=   60 NAOKFM=F Big=F
 ------------------------------------------------------------------------------
 Polarizable Continuum Model (PCM)
 =================================
 Model                : PCM.
 Atomic radii         : UFF (Universal Force Field).
 Polarization charges : Total charges.
 Charge compensation  : None.
 Solution method      : Matrix inversion.
 Cavity type          : Scaled VdW (van der Waals Surface) (Alpha=1.100).
 Cavity algorithm     : GePol (No added spheres)
                        Default sphere list used, NSphG=   31.
                        Lebedev-Laikov grids with approx.  5.0 points / Ang**2.
                        Smoothing algorithm: Karplus/York (Gamma=1.0000).
                        Polarization charges: spherical gaussians, with
                                              point-specific exponents (IZeta= 3).
                        Self-potential: point-specific (ISelfS= 7).
                        Self-field    : sphere-specific E.n sum rule (ISelfD= 2).
 Solvent              : Benzene, Eps=   2.270600 Eps(inf)=   2.253301
 ------------------------------------------------------------------------------
 One-electron integrals computed using PRISM.
 NBasis=   309 RedAO= T  NBF=   309
 NBsUse=   309 1.00D-06 NBFU=   309
 Harris functional with IExCor=  908 diagonalized for initial guess.
 ExpMin= 4.38D-02 ExpMax= 5.48D+03 ExpMxC= 8.25D+02 IAcc=2 IRadAn=         4 AccDes= 0.00D+00
 HarFok:  IExCor=  908 AccDes= 0.00D+00 IRadAn=         4 IDoV= 1
 ScaDFX=  1.000000  1.000000  1.000000  1.000000
 FoFCou: FMM=F IPFlag=           0 FMFlag=      100000 FMFlg1=           0
         NFxFlg=           0 DoJE=T BraDBF=F KetDBF=T FulRan=T
         Omega=  0.000000  0.000000  1.000000  0.000000  0.000000 ICntrl=     500 IOpCl=  0
         NMat0=    1 NMatS0=    1 NMatT0=    0 NMatD0=    1 NMtDS0=    0 NMtDT0=    0
         I1Cent=           4 NGrid=           0.
 Petite list used in FoFCou.
 Initial guess orbital symmetries:
       Occupied  (A) (A) (A) (A) (A) (A) (A) (A) (A) (A) (A) (A)
                 (A) (A) (A) (A) (A) (A) (A) (A) (A) (A) (A) (A)
                 (A) (A) (A) (A) (A) (A) (A) (A) (A) (A) (A) (A)
                 (A) (A) (A) (A) (A) (A) (A) (A)
       Virtual   (A) (A) (A) (A) (A) (A) (A) (A) (A) (A) (A) (A)
                 (A) (A) (A) (A) (A) (A) (A) (A) (A) (A) (A) (A)
                 (A) (A) (A) (A) (A) (A) (A) (A) (A) (A) (A) (A)
                 (A) (A) (A) (A) (A) (A) (A) (A) (A) (A) (A) (A)
                 (A) (A) (A) (A) (A) (A) (A) (A) (A) (A) (A) (A)
                 (A) (A) (A) (A) (A) (A) (A) (A) (A) (A) (A) (A)
                 (A) (A) (A) (A) (A) (A) (A) (A) (A) (A) (A) (A)
                 (A) (A) (A) (A) (A) (A) (A) (A) (A) (A) (A) (A)
                 (A) (A) (A) (A) (A) (A) (A) (A) (A) (A) (A) (A)
                 (A) (A) (A) (A) (A) (A) (A) (A) (A) (A) (A) (A)
                 (A) (A) (A) (A) (A) (A) (A) (A) (A) (A) (A) (A)
                 (A) (A) (A) (A) (A) (A) (A) (A) (A) (A) (A) (A)
                 (A) (A) (A) (A) (A) (A) (A) (A) (A) (A) (A) (A)
                 (A) (A) (A) (A) (A) (A) (A) (A) (A) (A) (A) (A)
                 (A) (A) (A) (A) (A) (A) (A) (A) (A) (A) (A) (A)
                 (A) (A) (A) (A) (A) (A) (A) (A) (A) (A) (A) (A)
                 (A) (A) (A) (A) (A) (A) (A) (A) (A) (A) (A) (A)
                 (A) (A) (A) (A) (A) (A) (A) (A) (A) (A) (A) (A)
                 (A) (A) (A) (A) (A) (A) (A) (A) (A) (A) (A) (A)
                 (A) (A) (A) (A) (A) (A) (A) (A) (A) (A) (A) (A)
                 (A) (A) (A) (A) (A) (A) (A) (A) (A) (A) (A) (A)
                 (A) (A) (A) (A) (A) (A) (A) (A) (A) (A) (A) (A)
                 (A)
 The electronic state of the initial guess is 1-A.
 Requested convergence on RMS density matrix=1.00D-08 within 128 cycles.
 Requested convergence on MAX density matrix=1.00D-06.
 Requested convergence on             energy=1.00D-06.
 No special actions if energy rises.
 Error on total polarization charges =  0.00937
 SCF Done:  E(RmPW1PW91) =  -468.282480400     A.U. after   12 cycles
             Convg  =    0.8340D-08             -V/T =  2.0099
 Range of M.O.s used for correlation:     1   309
 NBasis=   309 NAE=    44 NBE=    44 NFC=     0 NFV=     0
 NROrb=    309 NOA=    44 NOB=    44 NVA=   265 NVB=   265

 **** Warning!!: The largest alpha MO coefficient is  0.80342825D+02

 NEqPCM:  Using equilibrium solvation (IEInf=0, Eps=   2.2706, EpsInf=   2.2533)
          Differentiating once with respect to magnetic field using GIAOs.
          Electric field/nuclear overlap derivatives assumed to be zero.
 FoFCou: FMM=F IPFlag=           0 FMFlag=    10101102 FMFlg1=           0
         NFxFlg=    40000000 DoJE=F BraDBF=F KetDBF=T FulRan=T
         Omega=  0.000000  0.000000  1.000000  0.000000  0.000000 ICntrl=    6100 IOpCl=  0
         NMat0=    1 NMatS0=    1 NMatT0=    0 NMatD0=    1 NMtDS0=    0 NMtDT0=    0
         I1Cent=           7 NGrid=        1920.
 Symmetry not used in FoFCou.
          There are     3 degrees of freedom in the 1st order CPHF.  IDoFFX=0.
      3 vectors produced by pass  0 Test12= 3.89D-13 3.33D-08 XBig12= 4.18D+01 1.94D+00.
 AX will form     3 AO Fock derivatives at one time.
      3 vectors produced by pass  1 Test12= 3.89D-13 3.33D-08 XBig12= 1.00D-01 9.15D-02.
      3 vectors produced by pass  2 Test12= 3.89D-13 3.33D-08 XBig12= 2.71D-04 4.76D-03.
      3 vectors produced by pass  3 Test12= 3.89D-13 3.33D-08 XBig12= 6.67D-07 1.47D-04.
      3 vectors produced by pass  4 Test12= 3.89D-13 3.33D-08 XBig12= 1.35D-09 7.73D-06.
      3 vectors produced by pass  5 Test12= 3.89D-13 3.33D-08 XBig12= 3.21D-12 3.52D-07.
 Inverted reduced A of dimension    18 with in-core refinement.
 Calculating GIAO nuclear magnetic shielding tensors.
 SCF GIAO Magnetic shielding tensor (ppm):
      1  C    Isotropic =   167.0477   Anisotropy =    15.0223
   XX=   169.3806   YX=     4.1593   ZX=     1.5766
   XY=     9.9291   YY=   170.1839   ZY=    -0.9959
   XZ=     6.3817   YZ=    -1.5571   ZZ=   161.5786
   Eigenvalues:   158.2382   165.8423   177.0625
      2  C    Isotropic =   126.6050   Anisotropy =    53.9911
   XX=   114.7661   YX=     3.7831   ZX=     8.7752
   XY=     3.4936   YY=   105.3965   ZY=   -11.3910
   XZ=     7.3986   YZ=    -8.8037   ZZ=   159.6524
   Eigenvalues:   101.5399   115.6759   162.5991
      3  C    Isotropic =   167.6119   Anisotropy =    20.4373
   XX=   180.9777   YX=     3.0077   ZX=    -1.1201
   XY=    -2.9566   YY=   169.3058   ZY=     1.7748
   XZ=    -4.3295   YZ=    -2.4091   ZZ=   152.5523
   Eigenvalues:   152.2877   169.3113   181.2368
      4  C    Isotropic =   148.1967   Anisotropy =    15.6574
   XX=   153.3114   YX=    -3.8873   ZX=     0.6551
   XY=    -2.4676   YY=   138.2313   ZY=    -1.6677
   XZ=     9.6921   YZ=     1.4066   ZZ=   153.0473
   Eigenvalues:   137.5314   148.4237   158.6349
      5  C    Isotropic =   158.7562   Anisotropy =    20.2590
   XX=   163.6284   YX=     6.8450   ZX=     3.4090
   XY=    13.1664   YY=   160.4622   ZY=    -4.6115
   XZ=    -1.5119   YZ=    -1.6298   ZZ=   152.1780
   Eigenvalues:   149.0193   154.9870   172.2622
      6  C    Isotropic =   149.4657   Anisotropy =    26.9065
   XX=   164.6998   YX=    -5.7858   ZX=    10.2922
   XY=    -9.3372   YY=   138.8003   ZY=    -2.0125
   XZ=    -3.3598   YZ=    -1.8057   ZZ=   144.8970
   Eigenvalues:   136.6411   144.3526   167.4033
      7  C    Isotropic =   172.9144   Anisotropy =    38.1490
   XX=   197.3797   YX=     2.8460   ZX=     2.2805
   XY=     2.6829   YY=   163.1832   ZY=    -0.7043
   XZ=     8.7014   YZ=     0.6399   ZZ=   158.1801
   Eigenvalues:   157.3958   163.0003   198.3470
      8  O    Isotropic =   282.3255   Anisotropy =    88.5790
   XX=   274.0281   YX=    33.4727   ZX=     0.5471
   XY=    32.4261   YY=   307.6134   ZY=   -51.6497
   XZ=     8.0207   YZ=   -25.6713   ZZ=   265.3350
   Eigenvalues:   230.8506   274.7477   341.3781
      9  C    Isotropic =   160.1485   Anisotropy =    17.6516
   XX=   171.7458   YX=    -0.5481   ZX=    -4.3003
   XY=     0.9314   YY=   156.6184   ZY=     0.5904
   XZ=     0.6423   YZ=    -0.0582   ZZ=   152.0813
   Eigenvalues:   151.8958   156.6335   171.9163
     10  C    Isotropic =   174.1976   Anisotropy =    33.2432
   XX=   171.7500   YX=   -11.9116   ZX=    -6.4331
   XY=   -12.1323   YY=   172.0705   ZY=    18.0277
   XZ=    -1.4496   YZ=    13.4641   ZZ=   178.7724
   Eigenvalues:   155.6771   170.5560   196.3598
     11  C    Isotropic =   177.2960   Anisotropy =    24.9398
   XX=   173.6028   YX=     2.7274   ZX=     9.6273
   XY=     2.5184   YY=   167.7858   ZY=     1.0313
   XZ=     4.8327   YZ=     6.4709   ZZ=   190.4994
   Eigenvalues:   166.7245   171.2410   193.9225
     12  H    Isotropic =    29.4790   Anisotropy =     5.3320
   XX=    30.2680   YX=    -0.5285   ZX=    -0.7531
   XY=    -0.4626   YY=    25.3162   ZY=    -0.9792
   XZ=    -0.3097   YZ=    -0.7618   ZZ=    32.8527
   Eigenvalues:    25.1569    30.2465    33.0336
     13  H    Isotropic =    27.2780   Anisotropy =     4.9087
   XX=    28.3712   YX=    -0.5289   ZX=    -0.7588
   XY=    -1.2507   YY=    26.9787   ZY=     1.6391
   XZ=    -2.3290   YZ=     3.2766   ZZ=    26.4841
   Eigenvalues:    24.1782    27.1054    30.5505
     14  H    Isotropic =    30.4599   Anisotropy =     8.7877
   XX=    31.3886   YX=     2.1959   ZX=    -0.5294
   XY=     1.6775   YY=    35.3058   ZY=    -1.4242
   XZ=     0.1179   YZ=    -1.8359   ZZ=    24.6855
   Eigenvalues:    24.4399    30.6216    36.3184
     15  H    Isotropic =    29.4141   Anisotropy =     5.2849
   XX=    29.9533   YX=    -0.9209   ZX=     1.8569
   XY=    -0.2203   YY=    27.2250   ZY=     2.9000
   XZ=     1.2070   YZ=     2.6218   ZZ=    31.0639
   Eigenvalues:    25.4418    29.8631    32.9373
     16  H    Isotropic =    30.3714   Anisotropy =     4.7548
   XX=    31.6708   YX=    -0.1373   ZX=     0.0483
   XY=    -0.3569   YY=    26.0716   ZY=    -0.8643
   XZ=    -0.1260   YZ=    -1.3861   ZZ=    33.3718
   Eigenvalues:    25.8913    31.6816    33.5413
     17  H    Isotropic =    30.5759   Anisotropy =     6.9648
   XX=    30.8537   YX=    -0.0808   ZX=     2.3480
   XY=    -0.5179   YY=    29.0701   ZY=    -3.8377
   XZ=     1.7073   YZ=    -3.6710   ZZ=    31.8037
   Eigenvalues:    26.2411    30.2674    35.2191
     18  H    Isotropic =    29.8541   Anisotropy =     8.9627
   XX=    31.1465   YX=    -2.6795   ZX=    -1.3175
   XY=    -2.8577   YY=    33.1460   ZY=     2.6903
   XZ=    -0.8466   YZ=     2.5986   ZZ=    25.2697
   Eigenvalues:    24.4551    29.2779    35.8292
     19  H    Isotropic =    30.4324   Anisotropy =     6.4729
   XX=    30.5480   YX=     0.5806   ZX=     1.9445
   XY=     0.6710   YY=    28.0832   ZY=     2.9201
   XZ=     1.4253   YZ=     2.6562   ZZ=    32.6660
   Eigenvalues:    26.7586    29.7909    34.7477
     20  H    Isotropic =    30.1322   Anisotropy =     7.2985
   XX=    30.4023   YX=     1.6436   ZX=    -0.3212
   XY=     1.2721   YY=    34.5282   ZY=    -0.1880
   XZ=     0.7672   YZ=    -0.4808   ZZ=    25.4663
   Eigenvalues:    25.4378    29.9610    34.9979
     21  H    Isotropic =    31.0250   Anisotropy =     8.5044
   XX=    32.2276   YX=     0.0062   ZX=     4.1609
   XY=     0.1952   YY=    27.3069   ZY=    -0.1790
   XZ=     3.3419   YZ=    -0.3574   ZZ=    33.5406
   Eigenvalues:    27.2703    29.1102    36.6946
     22  H    Isotropic =    30.7119   Anisotropy =    10.6011
   XX=    33.7821   YX=     5.0850   ZX=    -1.5065
   XY=     3.9352   YY=    31.7401   ZY=    -2.0922
   XZ=    -1.0007   YZ=    -1.4781   ZZ=    26.6134
   Eigenvalues:    26.0474    28.3089    37.7793
     23  H    Isotropic =    30.5400   Anisotropy =    10.5408
   XX=    34.9358   YX=    -4.2473   ZX=    -2.7203
   XY=    -2.9263   YY=    29.4871   ZY=     2.3259
   XZ=    -1.8791   YZ=     1.7354   ZZ=    27.1973
   Eigenvalues:    26.0048    28.0481    37.5673
     24  H    Isotropic =    31.3097   Anisotropy =    18.5604
   XX=    26.5764   YX=     5.9390   ZX=    -0.4827
   XY=     5.7299   YY=    37.1883   ZY=    -7.0277
   XZ=    -1.1610   YZ=    -7.9969   ZZ=    30.1643
   Eigenvalues:    22.7863    27.4595    43.6832
     25  H    Isotropic =    29.9090   Anisotropy =     7.6992
   XX=    29.3098   YX=     1.8754   ZX=    -1.7073
   XY=     1.4767   YY=    31.7845   ZY=    -3.5225
   XZ=    -1.7552   YZ=    -3.5369   ZZ=    28.6326
   Eigenvalues:    26.2207    28.4645    35.0417
     26  H    Isotropic =    30.4354   Anisotropy =     6.9193
   XX=    29.8378   YX=    -1.9727   ZX=    -0.9424
   XY=    -1.6248   YY=    34.3711   ZY=    -1.2992
   XZ=    -1.3736   YZ=    -0.8156   ZZ=    27.0974
   Eigenvalues:    26.3316    29.9263    35.0483
     27  H    Isotropic =    30.7541   Anisotropy =     9.7206
   XX=    28.9051   YX=    -1.1961   ZX=    -1.1930
   XY=    -0.4125   YY=    27.3411   ZY=     3.6791
   XZ=    -0.5137   YZ=     2.8198   ZZ=    36.0161
   Eigenvalues:    26.1666    28.8613    37.2345
     28  H    Isotropic =    30.5224   Anisotropy =    10.5656
   XX=    36.7716   YX=     0.0384   ZX=    -2.5605
   XY=    -0.9330   YY=    27.0090   ZY=     0.9394
   XZ=    -2.8192   YZ=     1.3009   ZZ=    27.7868
   Eigenvalues:    26.0415    27.9596    37.5662
     29  H    Isotropic =    30.0790   Anisotropy =     6.2273
   XX=    29.6319   YX=     1.7860   ZX=     1.4592
   XY=     2.3582   YY=    29.2630   ZY=    -3.4104
   XZ=     1.4489   YZ=    -4.1601   ZZ=    31.3421
   Eigenvalues:    24.9966    31.0098    34.2306
     30  H    Isotropic =    30.4119   Anisotropy =     7.9916
   XX=    30.0625   YX=    -0.7401   ZX=     1.8575
   XY=    -1.2799   YY=    30.3538   ZY=     4.6133
   XZ=     0.4139   YZ=     5.6767   ZZ=    30.8193
   Eigenvalues:    24.9843    30.5117    35.7396
     31  H    Isotropic =    30.9739   Anisotropy =    10.8549
   XX=    36.5819   YX=     2.3903   ZX=     2.1931
   XY=     2.7494   YY=    27.2617   ZY=     1.5338
   XZ=     3.1365   YZ=     1.5268   ZZ=    29.0781
   Eigenvalues:    26.2676    28.4436    38.2105
 End of Minotr Frequency-dependent properties file   721 does not exist.
 End of Minotr Frequency-dependent properties file   722 does not exist.

 **********************************************************************

            Population analysis using the SCF density.

 **********************************************************************

 Orbital symmetries:
       Occupied  (A) (A) (A) (A) (A) (A) (A) (A) (A) (A) (A) (A)
                 (A) (A) (A) (A) (A) (A) (A) (A) (A) (A) (A) (A)
                 (A) (A) (A) (A) (A) (A) (A) (A) (A) (A) (A) (A)
                 (A) (A) (A) (A) (A) (A) (A) (A)
       Virtual   (A) (A) (A) (A) (A) (A) (A) (A) (A) (A) (A) (A)
                 (A) (A) (A) (A) (A) (A) (A) (A) (A) (A) (A) (A)
                 (A) (A) (A) (A) (A) (A) (A) (A) (A) (A) (A) (A)
                 (A) (A) (A) (A) (A) (A) (A) (A) (A) (A) (A) (A)
                 (A) (A) (A) (A) (A) (A) (A) (A) (A) (A) (A) (A)
                 (A) (A) (A) (A) (A) (A) (A) (A) (A) (A) (A) (A)
                 (A) (A) (A) (A) (A) (A) (A) (A) (A) (A) (A) (A)
                 (A) (A) (A) (A) (A) (A) (A) (A) (A) (A) (A) (A)
                 (A) (A) (A) (A) (A) (A) (A) (A) (A) (A) (A) (A)
                 (A) (A) (A) (A) (A) (A) (A) (A) (A) (A) (A) (A)
                 (A) (A) (A) (A) (A) (A) (A) (A) (A) (A) (A) (A)
                 (A) (A) (A) (A) (A) (A) (A) (A) (A) (A) (A) (A)
                 (A) (A) (A) (A) (A) (A) (A) (A) (A) (A) (A) (A)
                 (A) (A) (A) (A) (A) (A) (A) (A) (A) (A) (A) (A)
                 (A) (A) (A) (A) (A) (A) (A) (A) (A) (A) (A) (A)
                 (A) (A) (A) (A) (A) (A) (A) (A) (A) (A) (A) (A)
                 (A) (A) (A) (A) (A) (A) (A) (A) (A) (A) (A) (A)
                 (A) (A) (A) (A) (A) (A) (A) (A) (A) (A) (A) (A)
                 (A) (A) (A) (A) (A) (A) (A) (A) (A) (A) (A) (A)
                 (A) (A) (A) (A) (A) (A) (A) (A) (A) (A) (A) (A)
                 (A) (A) (A) (A) (A) (A) (A) (A) (A) (A) (A) (A)
                 (A) (A) (A) (A) (A) (A) (A) (A) (A) (A) (A) (A)
                 (A)
 The electronic state is 1-A.
 Alpha  occ. eigenvalues --  -19.24360 -10.29413 -10.24749 -10.24685 -10.24603
 Alpha  occ. eigenvalues --  -10.24202 -10.23705 -10.23439 -10.23306 -10.22978
 Alpha  occ. eigenvalues --  -10.22058  -1.04890  -0.85706  -0.81897  -0.76440
 Alpha  occ. eigenvalues --   -0.75473  -0.69504  -0.69313  -0.63157  -0.61650
 Alpha  occ. eigenvalues --   -0.57991  -0.55379  -0.51262  -0.48662  -0.46687
 Alpha  occ. eigenvalues --   -0.46095  -0.44760  -0.43492  -0.42589  -0.41191
 Alpha  occ. eigenvalues --   -0.40425  -0.39698  -0.38583  -0.38003  -0.37075
 Alpha  occ. eigenvalues --   -0.35741  -0.35216  -0.34977  -0.33327  -0.32116
 Alpha  occ. eigenvalues --   -0.32007  -0.31175  -0.29490  -0.27782
 Alpha virt. eigenvalues --    0.00436   0.01774   0.02093   0.02570   0.03603
 Alpha virt. eigenvalues --    0.04279   0.04649   0.05178   0.05561   0.06742
 Alpha virt. eigenvalues --    0.07042   0.07673   0.08155   0.08544   0.09651
 Alpha virt. eigenvalues --    0.09822   0.10194   0.10373   0.11027   0.11340
 Alpha virt. eigenvalues --    0.12001   0.13208   0.13615   0.14224   0.14945
 Alpha virt. eigenvalues --    0.15212   0.15545   0.16814   0.17373   0.17920
 Alpha virt. eigenvalues --    0.18636   0.19171   0.19188   0.20170   0.20290
 Alpha virt. eigenvalues --    0.20691   0.21342   0.21710   0.21879   0.22186
 Alpha virt. eigenvalues --    0.22660   0.23332   0.23801   0.24098   0.24782
 Alpha virt. eigenvalues --    0.24957   0.26042   0.26323   0.26681   0.27798
 Alpha virt. eigenvalues --    0.28232   0.28636   0.28997   0.29712   0.29873
 Alpha virt. eigenvalues --    0.30797   0.31464   0.32678   0.32816   0.33421
 Alpha virt. eigenvalues --    0.33683   0.34765   0.35935   0.36440   0.37728
 Alpha virt. eigenvalues --    0.38188   0.38711   0.40239   0.40964   0.41744
 Alpha virt. eigenvalues --    0.43901   0.44381   0.45242   0.50777   0.53594
 Alpha virt. eigenvalues --    0.62439   0.64946   0.66609   0.66886   0.67369
 Alpha virt. eigenvalues --    0.68618   0.69597   0.70578   0.71559   0.73415
 Alpha virt. eigenvalues --    0.73969   0.74601   0.75549   0.76569   0.76861
 Alpha virt. eigenvalues --    0.77541   0.78490   0.80487   0.81974   0.85482
 Alpha virt. eigenvalues --    0.87234   0.88276   0.89037   0.89173   0.91839
 Alpha virt. eigenvalues --    0.94583   0.96514   0.99215   0.99927   1.00285
 Alpha virt. eigenvalues --    1.01868   1.02308   1.02948   1.03827   1.04946
 Alpha virt. eigenvalues --    1.05373   1.07961   1.09259   1.10435   1.11672
 Alpha virt. eigenvalues --    1.12215   1.14088   1.14524   1.16779   1.17401
 Alpha virt. eigenvalues --    1.17644   1.18849   1.18897   1.20749   1.22826
 Alpha virt. eigenvalues --    1.24478   1.26959   1.27210   1.32088   1.35539
 Alpha virt. eigenvalues --    1.36614   1.38980   1.40594   1.43775   1.45280
 Alpha virt. eigenvalues --    1.48022   1.49681   1.50612   1.56568   1.58498
 Alpha virt. eigenvalues --    1.59375   1.62874   1.64073   1.65382   1.67035
 Alpha virt. eigenvalues --    1.68111   1.72244   1.74793   1.76432   1.80402
 Alpha virt. eigenvalues --    1.82470   1.84178   1.86411   1.86814   1.88723
 Alpha virt. eigenvalues --    1.89882   1.90499   1.92217   1.94695   1.95034
 Alpha virt. eigenvalues --    1.96030   1.97789   1.99682   2.02064   2.04175
 Alpha virt. eigenvalues --    2.05234   2.06012   2.06110   2.07219   2.08275
 Alpha virt. eigenvalues --    2.09889   2.11865   2.12590   2.13103   2.15481
 Alpha virt. eigenvalues --    2.15939   2.16845   2.18180   2.19697   2.20596
 Alpha virt. eigenvalues --    2.20926   2.22126   2.24411   2.27565   2.29312
 Alpha virt. eigenvalues --    2.32837   2.33521   2.35698   2.37455   2.37988
 Alpha virt. eigenvalues --    2.39234   2.39723   2.40398   2.41341   2.45864
 Alpha virt. eigenvalues --    2.47143   2.50907   2.52446   2.54675   2.58483
 Alpha virt. eigenvalues --    2.60890   2.61684   2.63383   2.64981   2.66719
 Alpha virt. eigenvalues --    2.68000   2.68859   2.69843   2.71906   2.73897
 Alpha virt. eigenvalues --    2.74525   2.75482   2.75894   2.78025   2.79258
 Alpha virt. eigenvalues --    2.79937   2.82095   2.83270   2.84020   2.86162
 Alpha virt. eigenvalues --    2.87242   2.89000   2.91277   2.91931   2.93285
 Alpha virt. eigenvalues --    2.94349   2.95383   2.95850   2.96981   2.99836
 Alpha virt. eigenvalues --    3.00617   3.03872   3.07075   3.11703   3.29321
 Alpha virt. eigenvalues --    3.30667   3.31947   3.35689   3.37325   3.39162
 Alpha virt. eigenvalues --    3.41151   3.42085   3.48704   3.49181   3.50076
 Alpha virt. eigenvalues --    3.50988   3.53428   3.54070   3.55001   3.56083
 Alpha virt. eigenvalues --    3.59269   3.59679   3.61412   3.64628   4.34381
 Alpha virt. eigenvalues --    4.43534   4.45073   4.54284   4.58431   4.60727
 Alpha virt. eigenvalues --    4.64920   4.76465   4.83847   4.89123   4.94696
          Condensed to atoms (all electrons):
              1          2          3          4          5          6
     1  C    7.972462   0.662305   0.132603  -0.245099  -0.404732  -1.084608
     2  C    0.662305   7.496978   0.245020  -1.087493  -0.181054  -1.519866
     3  C    0.132603   0.245020   6.439845  -0.859565  -0.055679  -0.419339
     4  C   -0.245099  -1.087493  -0.859565   8.988034   0.165728   0.629265
     5  C   -0.404732  -0.181054  -0.055679   0.165728   5.996893   0.108244
     6  C   -1.084608  -1.519866  -0.419339   0.629265   0.108244   7.571484
     7  C   -1.124961  -0.598131  -0.255031   0.133779   0.185789   0.780018
     8  O   -0.057307  -0.059023  -0.071172  -0.198482  -0.013779   0.202539
     9  C    0.157765   0.784794   0.698910  -2.212723  -0.181748  -0.489216
    10  C   -0.017001  -0.022241  -0.080764   0.327310  -0.014921   0.015095
    11  C    0.002856  -0.089144  -0.039349   0.032315   0.009599   0.033410
    12  H    0.303675  -0.021738  -0.003218  -0.002790  -0.001222   0.001838
    13  H    0.013133   0.096623  -0.024098   0.123962  -0.001391   0.146973
    14  H    0.026929   0.048090   0.319459  -0.067774   0.012126  -0.008195
    15  H   -0.016493  -0.036923   0.448343  -0.058502  -0.039528   0.013159
    16  H   -0.012058  -0.045326  -0.019228   0.336722  -0.017184  -0.005199
    17  H   -0.092550   0.000989  -0.070867   0.015204   0.458371   0.001143
    18  H   -0.033120  -0.010945  -0.030638   0.041636   0.339415   0.036997
    19  H   -0.103960  -0.062710   0.010343   0.012115  -0.001135   0.449743
    20  H   -0.032934   0.037152  -0.007621   0.009512   0.047135   0.294505
    21  H   -0.104715  -0.004916   0.003266   0.001465   0.002669   0.009207
    22  H   -0.120471   0.002607  -0.011733   0.001600   0.029326  -0.004795
    23  H   -0.145556  -0.015897  -0.002845   0.003379   0.003748   0.039699
    24  H   -0.023198   0.100413  -0.004116   0.041751   0.020534  -0.080348
    25  H   -0.000044   0.021666  -0.033037  -0.020032   0.010436  -0.011600
    26  H    0.000128   0.008789  -0.004828   0.005837  -0.000278  -0.005632
    27  H   -0.000143   0.006184   0.005324  -0.023821  -0.003011   0.001251
    28  H    0.000061  -0.001311  -0.006464   0.049298   0.000572   0.001086
    29  H   -0.000194   0.011349  -0.015613   0.026411   0.004199  -0.003256
    30  H   -0.001376  -0.004892   0.032767  -0.051822  -0.004241   0.000190
    31  H    0.000378  -0.006021  -0.008209   0.066446   0.000565   0.001393
              7          8          9         10         11         12
     1  C   -1.124961  -0.057307   0.157765  -0.017001   0.002856   0.303675
     2  C   -0.598131  -0.059023   0.784794  -0.022241  -0.089144  -0.021738
     3  C   -0.255031  -0.071172   0.698910  -0.080764  -0.039349  -0.003218
     4  C    0.133779  -0.198482  -2.212723   0.327310   0.032315  -0.002790
     5  C    0.185789  -0.013779  -0.181748  -0.014921   0.009599  -0.001222
     6  C    0.780018   0.202539  -0.489216   0.015095   0.033410   0.001838
     7  C    6.278656   0.077829  -0.088286  -0.004273   0.008864  -0.012078
     8  O    0.077829   8.436414   0.054161  -0.018717   0.029903   0.008510
     9  C   -0.088286   0.054161   7.873101  -0.404468  -0.049122  -0.000420
    10  C   -0.004273  -0.018717  -0.404468   5.618163  -0.082585   0.001042
    11  C    0.008864   0.029903  -0.049122  -0.082585   5.447244   0.000810
    12  H   -0.012078   0.008510  -0.000420   0.001042   0.000810   0.555044
    13  H    0.016681  -0.037604  -0.094730   0.008984   0.008814  -0.000082
    14  H    0.000532  -0.000935   0.004566   0.001952  -0.012765   0.000003
    15  H    0.002075   0.007818  -0.011331  -0.003433   0.010249   0.003025
    16  H    0.004587   0.012459   0.021356  -0.022910   0.014697   0.000111
    17  H   -0.006743   0.000453  -0.004871   0.001385   0.000451   0.005165
    18  H   -0.013677   0.000534  -0.002398   0.000311  -0.000116  -0.004533
    19  H   -0.003503   0.009964  -0.006460   0.003769   0.000382   0.004941
    20  H   -0.014380  -0.018624   0.003333  -0.000990  -0.000614  -0.003871
    21  H    0.441859   0.000105  -0.000197   0.000109   0.000005   0.004700
    22  H    0.463008  -0.000226  -0.000154  -0.000038   0.000004  -0.003709
    23  H    0.477118   0.000188  -0.000625  -0.000012   0.000065  -0.003692
    24  H   -0.010882   0.199119  -0.011627   0.004424  -0.005444   0.000271
    25  H   -0.000224  -0.000873   0.312128   0.000621  -0.008165   0.000001
    26  H   -0.000115   0.001657  -0.139439   0.478323   0.004835   0.000000
    27  H   -0.000126   0.000447  -0.049357   0.417840   0.002970   0.000000
    28  H    0.000014  -0.000098  -0.136216   0.448129   0.005121   0.000000
    29  H    0.000029  -0.012720  -0.115337  -0.010776   0.469642   0.000002
    30  H   -0.000312  -0.000245  -0.013096  -0.003600   0.407541   0.000002
    31  H    0.000038   0.000744  -0.149308   0.015583   0.433733   0.000000
             13         14         15         16         17         18
     1  C    0.013133   0.026929  -0.016493  -0.012058  -0.092550  -0.033120
     2  C    0.096623   0.048090  -0.036923  -0.045326   0.000989  -0.010945
     3  C   -0.024098   0.319459   0.448343  -0.019228  -0.070867  -0.030638
     4  C    0.123962  -0.067774  -0.058502   0.336722   0.015204   0.041636
     5  C   -0.001391   0.012126  -0.039528  -0.017184   0.458371   0.339415
     6  C    0.146973  -0.008195   0.013159  -0.005199   0.001143   0.036997
     7  C    0.016681   0.000532   0.002075   0.004587  -0.006743  -0.013677
     8  O   -0.037604  -0.000935   0.007818   0.012459   0.000453   0.000534
     9  C   -0.094730   0.004566  -0.011331   0.021356  -0.004871  -0.002398
    10  C    0.008984   0.001952  -0.003433  -0.022910   0.001385   0.000311
    11  C    0.008814  -0.012765   0.010249   0.014697   0.000451  -0.000116
    12  H   -0.000082   0.000003   0.003025   0.000111   0.005165  -0.004533
    13  H    0.628959  -0.000111  -0.000053  -0.003453  -0.000071   0.000014
    14  H   -0.000111   0.558998  -0.029855  -0.004510  -0.004153  -0.002723
    15  H   -0.000053  -0.029855   0.528492   0.004926   0.004611  -0.004028
    16  H   -0.003453  -0.004510   0.004926   0.576013   0.003421   0.000039
    17  H   -0.000071  -0.004153   0.004611   0.003421   0.555206  -0.030323
    18  H    0.000014  -0.002723  -0.004028   0.000039  -0.030323   0.555288
    19  H   -0.002279  -0.000022   0.000073   0.001524   0.003271  -0.000032
    20  H   -0.005975   0.000010  -0.000021   0.000064  -0.000035  -0.000138
    21  H   -0.000004   0.000000   0.000002   0.000004   0.003404  -0.000154
    22  H   -0.000003   0.000002   0.000001   0.000001  -0.000018   0.000012
    23  H    0.000002  -0.000004   0.000000   0.000000  -0.000255   0.002822
    24  H   -0.007379   0.000009  -0.000311  -0.000300   0.000001  -0.000008
    25  H    0.000002   0.003627  -0.000015  -0.006926   0.000019  -0.000006
    26  H   -0.001157   0.000001   0.000010  -0.000033   0.000000   0.000000
    27  H   -0.000408  -0.000004   0.000001   0.003413   0.000001   0.000000
    28  H    0.000072  -0.000004   0.000000   0.000024   0.000000   0.000000
    29  H    0.000025   0.000109   0.000102  -0.000091   0.000000   0.000000
    30  H   -0.000006   0.000174  -0.000632  -0.000012  -0.000002   0.000006
    31  H    0.000006  -0.000024   0.000019  -0.000108   0.000000   0.000000
             19         20         21         22         23         24
     1  C   -0.103960  -0.032934  -0.104715  -0.120471  -0.145556  -0.023198
     2  C   -0.062710   0.037152  -0.004916   0.002607  -0.015897   0.100413
     3  C    0.010343  -0.007621   0.003266  -0.011733  -0.002845  -0.004116
     4  C    0.012115   0.009512   0.001465   0.001600   0.003379   0.041751
     5  C   -0.001135   0.047135   0.002669   0.029326   0.003748   0.020534
     6  C    0.449743   0.294505   0.009207  -0.004795   0.039699  -0.080348
     7  C   -0.003503  -0.014380   0.441859   0.463008   0.477118  -0.010882
     8  O    0.009964  -0.018624   0.000105  -0.000226   0.000188   0.199119
     9  C   -0.006460   0.003333  -0.000197  -0.000154  -0.000625  -0.011627
    10  C    0.003769  -0.000990   0.000109  -0.000038  -0.000012   0.004424
    11  C    0.000382  -0.000614   0.000005   0.000004   0.000065  -0.005444
    12  H    0.004941  -0.003871   0.004700  -0.003709  -0.003692   0.000271
    13  H   -0.002279  -0.005975  -0.000004  -0.000003   0.000002  -0.007379
    14  H   -0.000022   0.000010   0.000000   0.000002  -0.000004   0.000009
    15  H    0.000073  -0.000021   0.000002   0.000001   0.000000  -0.000311
    16  H    0.001524   0.000064   0.000004   0.000001   0.000000  -0.000300
    17  H    0.003271  -0.000035   0.003404  -0.000018  -0.000255   0.000001
    18  H   -0.000032  -0.000138  -0.000154   0.000012   0.002822  -0.000008
    19  H    0.542213  -0.027906   0.003309  -0.000225   0.000003   0.000126
    20  H   -0.027906   0.562557  -0.000114   0.002633  -0.000015   0.005354
    21  H    0.003309  -0.000114   0.535756  -0.028616  -0.027925   0.000001
    22  H   -0.000225   0.002633  -0.028616   0.535436  -0.025585   0.000011
    23  H    0.000003  -0.000015  -0.027925  -0.025585   0.531778   0.000000
    24  H    0.000126   0.005354   0.000001   0.000011   0.000000   0.405435
    25  H    0.000005   0.000002   0.000000   0.000000   0.000000   0.000007
    26  H    0.000007   0.000004   0.000000   0.000000   0.000000  -0.000030
    27  H   -0.000003   0.000001   0.000000   0.000000   0.000000  -0.000005
    28  H    0.000000   0.000000   0.000000   0.000000   0.000000  -0.000001
    29  H    0.000000   0.000003   0.000000   0.000000   0.000000   0.000471
    30  H    0.000000   0.000000   0.000000   0.000000   0.000000   0.000004
    31  H    0.000000   0.000000   0.000000   0.000000   0.000000  -0.000008
             25         26         27         28         29         30
     1  C   -0.000044   0.000128  -0.000143   0.000061  -0.000194  -0.001376
     2  C    0.021666   0.008789   0.006184  -0.001311   0.011349  -0.004892
     3  C   -0.033037  -0.004828   0.005324  -0.006464  -0.015613   0.032767
     4  C   -0.020032   0.005837  -0.023821   0.049298   0.026411  -0.051822
     5  C    0.010436  -0.000278  -0.003011   0.000572   0.004199  -0.004241
     6  C   -0.011600  -0.005632   0.001251   0.001086  -0.003256   0.000190
     7  C   -0.000224  -0.000115  -0.000126   0.000014   0.000029  -0.000312
     8  O   -0.000873   0.001657   0.000447  -0.000098  -0.012720  -0.000245
     9  C    0.312128  -0.139439  -0.049357  -0.136216  -0.115337  -0.013096
    10  C    0.000621   0.478323   0.417840   0.448129  -0.010776  -0.003600
    11  C   -0.008165   0.004835   0.002970   0.005121   0.469642   0.407541
    12  H    0.000001   0.000000   0.000000   0.000000   0.000002   0.000002
    13  H    0.000002  -0.001157  -0.000408   0.000072   0.000025  -0.000006
    14  H    0.003627   0.000001  -0.000004  -0.000004   0.000109   0.000174
    15  H   -0.000015   0.000010   0.000001   0.000000   0.000102  -0.000632
    16  H   -0.006926  -0.000033   0.003413   0.000024  -0.000091  -0.000012
    17  H    0.000019   0.000000   0.000001   0.000000   0.000000  -0.000002
    18  H   -0.000006   0.000000   0.000000   0.000000   0.000000   0.000006
    19  H    0.000005   0.000007  -0.000003   0.000000   0.000000   0.000000
    20  H    0.000002   0.000004   0.000001   0.000000   0.000003   0.000000
    21  H    0.000000   0.000000   0.000000   0.000000   0.000000   0.000000
    22  H    0.000000   0.000000   0.000000   0.000000   0.000000   0.000000
    23  H    0.000000   0.000000   0.000000   0.000000   0.000000   0.000000
    24  H    0.000007  -0.000030  -0.000005  -0.000001   0.000471   0.000004
    25  H    0.587071   0.005032  -0.003482  -0.004385   0.004906  -0.003556
    26  H    0.005032   0.533089  -0.029078  -0.027203   0.003338   0.000034
    27  H   -0.003482  -0.029078   0.537952  -0.025655  -0.000030  -0.000134
    28  H   -0.004385  -0.027203  -0.025655   0.529604  -0.000077   0.000021
    29  H    0.004906   0.003338  -0.000030  -0.000077   0.501510  -0.025705
    30  H   -0.003556   0.000034  -0.000134   0.000021  -0.025705   0.540099
    31  H   -0.004191  -0.000191   0.000080   0.002607  -0.028229  -0.028019
             31
     1  C    0.000378
     2  C   -0.006021
     3  C   -0.008209
     4  C    0.066446
     5  C    0.000565
     6  C    0.001393
     7  C    0.000038
     8  O    0.000744
     9  C   -0.149308
    10  C    0.015583
    11  C    0.433733
    12  H    0.000000
    13  H    0.000006
    14  H   -0.000024
    15  H    0.000019
    16  H   -0.000108
    17  H    0.000000
    18  H    0.000000
    19  H    0.000000
    20  H    0.000000
    21  H    0.000000
    22  H    0.000000
    23  H    0.000000
    24  H   -0.000008
    25  H   -0.004191
    26  H   -0.000191
    27  H    0.000080
    28  H    0.002607
    29  H   -0.028229
    30  H   -0.028019
    31  H    0.549873
 Mulliken atomic charges:
              1
     1  C    0.348226
     2  C    0.244674
     3  C   -0.312466
     4  C   -0.183669
     5  C   -0.475449
     6  C   -0.705186
     7  C   -0.738155
     8  O   -0.553043
     9  C    0.251014
    10  C   -0.656311
    11  C   -0.636208
    12  H    0.168214
    13  H    0.134552
    14  H    0.154495
    15  H    0.178219
    16  H    0.157975
    17  H    0.156794
    18  H    0.155763
    19  H    0.166445
    20  H    0.150972
    21  H    0.160781
    22  H    0.160934
    23  H    0.163608
    24  H    0.365724
    25  H    0.151012
    26  H    0.166900
    27  H    0.159793
    28  H    0.164805
    29  H    0.189931
    30  H    0.156812
    31  H    0.152845
 Sum of Mulliken atomic charges =   0.00000
 Mulliken charges with hydrogens summed into heavy atoms:
              1
     1  C    0.516439
     2  C    0.379226
     3  C    0.020248
     4  C   -0.025694
     5  C   -0.162892
     6  C   -0.387769
     7  C   -0.252832
     8  O   -0.187319
     9  C    0.402026
    10  C   -0.164814
    11  C   -0.136620
 Sum of Mulliken charges with hydrogens summed into heavy atoms =   0.00000
 Electronic spatial extent (au):  <R**2>=           2156.0947
 Charge=              0.0000 electrons
 Dipole moment (field-independent basis, Debye):
    X=             -1.0182    Y=             -0.9994    Z=             -0.8829  Tot=              1.6778
 Quadrupole moment (field-independent basis, Debye-Ang):
   XX=            -73.8623   YY=            -67.8062   ZZ=            -73.0038
   XY=              1.5980   XZ=             -2.2181   YZ=             -1.4802
 Traceless Quadrupole moment (field-independent basis, Debye-Ang):
   XX=             -2.3049   YY=              3.7512   ZZ=             -1.4463
   XY=              1.5980   XZ=             -2.2181   YZ=             -1.4802
 Octapole moment (field-independent basis, Debye-Ang**2):
  XXX=              3.4696  YYY=            -17.7678  ZZZ=              2.8825  XYY=             -3.3208
  XXY=              0.2327  XXZ=              2.0954  XZZ=             -4.5967  YZZ=             -4.3389
  YYZ=              9.9059  XYZ=              0.8167
 Hexadecapole moment (field-independent basis, Debye-Ang**3):
 XXXX=          -2139.7682 YYYY=           -507.0448 ZZZZ=           -358.0645 XXXY=              4.0638
 XXXZ=            -13.0919 YYYX=              4.7058 YYYZ=            -29.1039 ZZZX=             -2.3937
 ZZZY=            -15.0583 XXYY=           -443.8328 XXZZ=           -421.0748 YYZZ=           -138.7337
 XXYZ=             -4.9824 YYXZ=             -7.5942 ZZXY=              2.4607
 N-N= 6.943577356028D+02 E-N=-2.474319919722D+03  KE= 4.637012959501D+02
 1\1\GINC-COMPUTE-10-2\SP\RmPW1PW91\6-31+G(d,p)\C10H20O1\ASAROTTI.IQUIR
 \19-Sep-2024\0\\# mPW1PW91/6-31+G** nmr scrf=(pcm,solvent=benzene)\\co
 mment\\0,1\C,0,-2.228108,0.022604,0.216088\C,0,0.086884,-1.04425,-0.08
 6231\C,0,-0.127323,1.464797,0.131599\C,0,0.668276,0.316246,-0.517832\C
 ,0,-1.625274,1.376712,-0.197415\C,0,-1.415335,-1.123665,-0.410092\C,0,
 -3.714131,-0.078286,-0.144788\O,0,0.316559,-1.213286,1.320213\C,0,2.20
 8621,0.481449,-0.376424\C,0,2.977813,-0.640172,-1.092946\C,0,2.725926,
 0.647346,1.062865\H,0,-2.129737,-0.064372,1.307728\H,0,0.602949,-1.846
 25,-0.636873\H,0,0.276261,2.427637,-0.209863\H,0,0.003659,1.433558,1.2
 19229\H,0,0.470653,0.364757,-1.601742\H,0,-1.772762,1.517991,-1.280005
 \H,0,-2.169552,2.192177,0.297871\H,0,-1.540858,-1.110788,-1.503247\H,0
 ,-1.808016,-2.095475,-0.071702\H,0,-3.862459,0.000288,-1.229834\H,0,-4
 .14147,-1.035107,0.179933\H,0,-4.292858,0.724214,0.328304\H,0,-0.09520
 7,-2.051623,1.582435\H,0,2.439086,1.417945,-0.908861\H,0,2.879396,-1.5
 95382,-0.563574\H,0,2.622381,-0.785233,-2.121112\H,0,4.047313,-0.40378
 8,-1.141018\H,0,2.526586,-0.245626,1.660716\H,0,2.259459,1.499225,1.56
 8904\H,0,3.808602,0.825452,1.052069\\Version=AM64L-G09RevC.01\State=1-
 A\HF=-468.2824804\RMSD=8.340e-09\Dipole=-0.4005989,-0.3931849,-0.34734
 79\Quadrupole=-1.7136217,2.7889224,-1.0753007,1.1880578,-1.649084,-1.1
 005121\PG=C01 [X(C10H20O1)]\\@


            ARSENIC

 FOR SMELTER FUMES HAVE I BEEN NAMED,
    I AM AN EVIL POISONOUS SMOKE...
 BUT WHEN FROM POISON I AM FREED,
    THROUGH ART AND SLEIGHT OF HAND,
 THEN CAN I CURE BOTH MAN AND BEAST,
    FROM DIRE DISEASE OFTTIMES DIRECT THEM;
 BUT PREPARE ME CORRECTLY, AND TAKE GREAT CARE
    THAT YOU FAITHFULLY KEEP WATCHFUL GUARD OVER ME;
 FOR ELSE I AM POISON, AND POISON REMAIN,
    THAT PIERCES THE HEART OF MANY A ONE.

 ATTRIBUTED TO THE PROBABLY MYTHICAL 15TH
 CENTURY MONK, BASILIUS VALENTINUS
 Job cpu time:  0 days  0 hours  9 minutes 22.9 seconds.
 File lengths (MBytes):  RWF=    121 Int=      0 D2E=      0 Chk=      7 Scr=      1
 Normal termination of Gaussian 09 at Thu Sep 19 09:30:24 2024.
