 Entering Gaussian System, Link 0=g09
 Input=/home/asarotti.iquir/SCF2/03_Mentol03_OptB_NMR_benzene.gjc
 Output=/home/asarotti.iquir/SCF2/03_Mentol03_OptB_NMR_benzene.log
 Initial command:
 /opt/ohpc/pub/apps/software/Gaussian/09/AMD64.SSE4a-enabled/g09/l1.exe /local/asarotti.iquir/Gau-1839267.inp -scrdir=/local/asarotti.iquir/
 Entering Link 1 = /opt/ohpc/pub/apps/software/Gaussian/09/AMD64.SSE4a-enabled/g09/l1.exe PID=   1839268.
  
 Copyright (c) 1988,1990,1992,1993,1995,1998,2003,2009,2011,
            Gaussian, Inc.  All Rights Reserved.
  
 This is part of the Gaussian(R) 09 program.  It is based on
 the Gaussian(R) 03 system (copyright 2003, Gaussian, Inc.),
 the Gaussian(R) 98 system (copyright 1998, Gaussian, Inc.),
 the Gaussian(R) 94 system (copyright 1995, Gaussian, Inc.),
 the Gaussian 92(TM) system (copyright 1992, Gaussian, Inc.),
 the Gaussian 90(TM) system (copyright 1990, Gaussian, Inc.),
 the Gaussian 88(TM) system (copyright 1988, Gaussian, Inc.),
 the Gaussian 86(TM) system (copyright 1986, Carnegie Mellon
 University), and the Gaussian 82(TM) system (copyright 1983,
 Carnegie Mellon University). Gaussian is a federally registered
 trademark of Gaussian, Inc.
  
 This software contains proprietary and confidential information,
 including trade secrets, belonging to Gaussian, Inc.
  
 This software is provided under written license and may be
 used, copied, transmitted, or stored only in accord with that
 written license.
  
 The following legend is applicable only to US Government
 contracts under FAR:
  
                    RESTRICTED RIGHTS LEGEND
  
 Use, reproduction and disclosure by the US Government is
 subject to restrictions as set forth in subparagraphs (a)
 and (c) of the Commercial Computer Software - Restricted
 Rights clause in FAR 52.227-19.
  
 Gaussian, Inc.
 340 Quinnipiac St., Bldg. 40, Wallingford CT 06492
  
  
 ---------------------------------------------------------------
 Warning -- This program may not be used in any manner that
 competes with the business of Gaussian, Inc. or will provide
 assistance to any competitor of Gaussian, Inc.  The licensee
 of this program is prohibited from giving any competitor of
 Gaussian, Inc. access to this program.  By using this program,
 the user acknowledges that Gaussian, Inc. is engaged in the
 business of creating and licensing software in the field of
 computational chemistry and represents and warrants to the
 licensee that it is not a competitor of Gaussian, Inc. and that
 it will not use this program in any manner prohibited above.
 ---------------------------------------------------------------
  

 Cite this work as:
 Gaussian 09, Revision C.01,
 M. J. Frisch, G. W. Trucks, H. B. Schlegel, G. E. Scuseria, 
 M. A. Robb, J. R. Cheeseman, G. Scalmani, V. Barone, B. Mennucci, 
 G. A. Petersson, H. Nakatsuji, M. Caricato, X. Li, H. P. Hratchian, 
 A. F. Izmaylov, J. Bloino, G. Zheng, J. L. Sonnenberg, M. Hada, 
 M. Ehara, K. Toyota, R. Fukuda, J. Hasegawa, M. Ishida, T. Nakajima, 
 Y. Honda, O. Kitao, H. Nakai, T. Vreven, J. A. Montgomery, Jr., 
 J. E. Peralta, F. Ogliaro, M. Bearpark, J. J. Heyd, E. Brothers, 
 K. N. Kudin, V. N. Staroverov, T. Keith, R. Kobayashi, J. Normand, 
 K. Raghavachari, A. Rendell, J. C. Burant, S. S. Iyengar, J. Tomasi, 
 M. Cossi, N. Rega, J. M. Millam, M. Klene, J. E. Knox, J. B. Cross, 
 V. Bakken, C. Adamo, J. Jaramillo, R. Gomperts, R. E. Stratmann, 
 O. Yazyev, A. J. Austin, R. Cammi, C. Pomelli, J. W. Ochterski, 
 R. L. Martin, K. Morokuma, V. G. Zakrzewski, G. A. Voth, 
 P. Salvador, J. J. Dannenberg, S. Dapprich, A. D. Daniels, 
 O. Farkas, J. B. Foresman, J. V. Ortiz, J. Cioslowski, 
 and D. J. Fox, Gaussian, Inc., Wallingford CT, 2010.
 
 ******************************************
 Gaussian 09:  AM64L-G09RevC.01 23-Sep-2011
                19-Sep-2024 
 ******************************************
 %nprocshared=4
 Will use up to    4 processors via shared memory.
 %mem=100mw
 --------------------------------------------------
 # mPW1PW91/6-31+G** nmr scrf=(pcm,solvent=benzene)
 --------------------------------------------------
 1/38=1/1;
 2/12=2,17=6,18=5,40=1/2;
 3/5=1,6=6,7=111,11=2,16=1,25=1,30=1,70=2201,72=12,74=-7/1,2,8,3;
 4//1;
 5/5=2,38=5,53=12/2;
 8/6=1,10=90,11=11/1;
 10/13=100,45=16/2;
 6/7=2,8=2,9=2,10=2,28=1/1;
 99/9=1/99;
 -------
 comment
 -------
 Charge =  0 Multiplicity = 1
 Symbolic Z-Matrix:
 6                    -2.26909   0.08255   0.16625 
 6                    -0.02734  -1.12505  -0.17994 
 6                    -0.05789   1.32289   0.47635 
 6                     0.72305   0.22684  -0.28359 
 6                    -1.52731   1.42255   0.03891 
 6                    -1.50025  -1.00279  -0.60532 
 6                    -3.72685   0.1822   -0.29519 
 8                     0.09533  -1.71383   1.12195 
 6                     2.20616   0.12784   0.16589 
 6                     2.97194   1.44006  -0.07822 
 6                     2.94974  -1.03538  -0.51235 
 1                    -2.2783   -0.19817   1.2331 
 1                     0.45442  -1.85269  -0.83922 
 1                     0.4253    2.29567   0.33946 
 1                    -0.01167   1.12019   1.55915 
 1                     0.71696   0.49906  -1.35262 
 1                    -1.57044   1.75165  -1.011 
 1                    -2.04031   2.19616   0.62612 
 1                    -1.53857  -0.76735  -1.67987 
 1                    -1.98094  -1.98052  -0.47536 
 1                    -3.78366   0.45706  -1.35642 
 1                    -4.24989  -0.77351  -0.17124 
 1                    -4.27463   0.942     0.27528 
 1                    -0.27982  -1.09441   1.76669 
 1                     2.20621  -0.07197   1.24662 
 1                     2.96327   1.70845  -1.14333 
 1                     2.55616   2.28369   0.48178 
 1                     4.0201    1.3344    0.22525 
 1                     2.89844  -0.95757  -1.607 
 1                     2.54197  -2.00611  -0.21713 
 1                     4.00974  -1.02553  -0.23264 
 
                          Input orientation:                          
 ---------------------------------------------------------------------
 Center     Atomic      Atomic             Coordinates (Angstroms)
 Number     Number       Type             X           Y           Z
 ---------------------------------------------------------------------
      1          6           0       -2.269092    0.082550    0.166252
      2          6           0       -0.027338   -1.125054   -0.179938
      3          6           0       -0.057889    1.322889    0.476345
      4          6           0        0.723047    0.226839   -0.283586
      5          6           0       -1.527309    1.422551    0.038914
      6          6           0       -1.500246   -1.002794   -0.605322
      7          6           0       -3.726848    0.182196   -0.295188
      8          8           0        0.095331   -1.713832    1.121950
      9          6           0        2.206163    0.127840    0.165885
     10          6           0        2.971942    1.440059   -0.078220
     11          6           0        2.949738   -1.035382   -0.512349
     12          1           0       -2.278296   -0.198168    1.233102
     13          1           0        0.454419   -1.852688   -0.839217
     14          1           0        0.425303    2.295667    0.339457
     15          1           0       -0.011665    1.120186    1.559148
     16          1           0        0.716964    0.499056   -1.352615
     17          1           0       -1.570435    1.751652   -1.010997
     18          1           0       -2.040311    2.196157    0.626124
     19          1           0       -1.538566   -0.767353   -1.679873
     20          1           0       -1.980942   -1.980519   -0.475357
     21          1           0       -3.783655    0.457060   -1.356418
     22          1           0       -4.249893   -0.773508   -0.171236
     23          1           0       -4.274632    0.941998    0.275279
     24          1           0       -0.279818   -1.094412    1.766690
     25          1           0        2.206210   -0.071969    1.246616
     26          1           0        2.963274    1.708451   -1.143330
     27          1           0        2.556157    2.283685    0.481781
     28          1           0        4.020098    1.334404    0.225254
     29          1           0        2.898438   -0.957571   -1.606995
     30          1           0        2.541967   -2.006115   -0.217134
     31          1           0        4.009735   -1.025525   -0.232636
 ---------------------------------------------------------------------
                    Distance matrix (angstroms):
                    1          2          3          4          5
     1  C    0.000000
     2  C    2.569750   0.000000
     3  C    2.554216   2.534574   0.000000
     4  C    3.029203   1.549656   1.545536   0.000000
     5  C    1.536899   2.964473   1.536383   2.568625   0.000000
     6  C    1.537668   1.537972   2.942652   2.560965   2.509596
     7  C    1.532289   3.925374   3.918891   4.450134   2.547170
     8  O    3.119430   1.434092   3.108369   2.477047   3.693620
     9  C    4.475484   2.584156   2.578848   1.552887   3.953633
    10  C    5.419505   3.947890   3.082393   2.563515   4.500810
    11  C    5.380191   2.996918   3.947756   2.569764   5.137049
    12  H    1.103203   2.814713   2.795801   3.389548   2.148673
    13  H    3.489072   1.093705   3.475263   2.169175   3.927537
    14  H    3.491082   3.489411   1.094765   2.181028   2.159942
    15  H    2.848302   2.840030   1.102582   2.175670   2.167882
    16  H    3.375939   2.137028   2.150394   1.103160   2.797491
    17  H    2.158689   3.368567   2.164213   2.848551   1.101127
    18  H    2.175122   3.966389   2.171411   3.513109   1.098386
    19  H    2.159671   2.159066   3.348252   2.837768   2.783888
    20  H    2.179667   2.153059   3.939083   3.495821   3.471476
    21  H    2.180065   4.242300   4.241463   4.638355   2.823158
    22  H    2.184103   4.237173   4.731505   5.073800   3.504183
    23  H    2.184658   4.745464   4.238682   5.079427   2.799033
    24  H    2.811379   1.963172   2.749107   2.637247   3.297961
    25  H    4.606451   2.851803   2.768590   2.151878   4.198964
    26  H    5.633490   4.230914   3.449555   2.820098   4.652395
    27  H    5.312964   4.328027   2.785031   2.859492   4.196710
    28  H    6.412841   4.753404   4.085726   3.515134   5.551236
    29  H    5.561441   3.259556   4.275590   2.808303   5.287838
    30  H    5.258878   2.716428   4.280471   2.880793   5.327318
    31  H    6.388318   4.038644   4.750081   3.517574   6.060171
                    6          7          8          9         10
     6  C    0.000000
     7  C    2.541287   0.000000
     8  O    2.456605   4.495804   0.000000
     9  C    3.951020   5.951148   2.959971   0.000000
    10  C    5.123069   6.819317   4.434222   1.538806   0.000000
    11  C    4.451074   6.790173   3.358402   1.538178   2.513318
    12  H    2.152345   2.139778   2.818457   4.621213   5.654056
    13  H    2.144235   4.681849   1.998600   2.828662   4.214169
    14  H    3.934487   4.702116   4.098446   2.810883   2.718803
    15  H    3.377551   4.256873   2.869538   2.800838   3.418363
    16  H    2.780291   4.578866   3.377391   2.159018   2.755811
    17  H    2.785044   2.761465   4.397024   4.276039   4.647618
    18  H    3.470074   2.783750   4.482725   4.745766   5.117662
    19  H    1.100709   2.758183   3.378706   4.269800   5.270924
    20  H    1.097226   2.785316   2.633139   4.731619   6.032340
    21  H    2.812343   1.097719   5.089363   6.188999   6.945370
    22  H    2.793128   1.096499   4.630066   6.527384   7.554034
    23  H    3.500699   1.096722   5.183325   6.532651   7.272267
    24  H    2.669135   4.214627   0.969591   3.199465   4.516766
    25  H    4.246637   6.135384   2.677138   1.099046   2.151224
    26  H    5.250077   6.914227   5.006856   2.187600   1.098439
    27  H    5.332649   6.670539   4.737681   2.206797   1.094616
    28  H    6.051987   7.849434   5.049713   2.179376   1.096308
    29  H    4.511520   6.849403   3.984530   2.190996   2.844501
    30  H    4.182921   6.640244   2.804390   2.193908   3.475671
    31  H    5.522617   7.830531   4.198956   2.177600   2.679545
                   11         12         13         14         15
    11  C    0.000000
    12  H    5.574932   0.000000
    13  H    2.646025   3.807844   0.000000
    14  H    4.265470   3.785137   4.312652   0.000000
    15  H    4.208026   2.642344   3.848034   1.749384   0.000000
    16  H    2.836517   4.017914   2.421406   2.485153   3.065137
    17  H    5.333683   3.055952   4.137730   2.470354   3.071508
    18  H    6.053062   2.481502   4.976349   2.484217   2.478639
    19  H    4.645409   3.058855   2.420050   4.161318   4.047899
    20  H    5.020583   2.486770   2.465708   4.973902   4.199004
    21  H    6.948267   3.066112   4.854246   4.896100   4.813332
    22  H    7.212463   2.488047   4.872513   5.615879   4.954077
    23  H    7.531395   2.490534   5.605024   4.891414   4.455666
    24  H    3.953168   2.254303   2.811554   3.745240   2.240407
    25  H    2.138915   4.486302   3.254294   3.098430   2.537298
    26  H    2.815482   6.062729   4.366755   2.997462   4.061983
    27  H    3.487034   5.485983   4.824098   2.135635   3.017973
    28  H    2.702890   6.560053   4.899461   3.722851   4.252091
    29  H    1.098606   5.953270   2.713659   4.526437   4.776006
    30  H    1.093504   5.348532   2.183663   4.826530   4.410212
    31  H    1.096326   6.509396   3.700326   4.919935   4.897573
                   16         17         18         19         20
    16  H    0.000000
    17  H    2.630189   0.000000
    18  H    3.794486   1.760265   0.000000
    19  H    2.607356   2.606491   3.788372   0.000000
    20  H    3.767834   3.792694   4.319885   1.765879   0.000000
    21  H    4.500817   2.587204   3.161357   2.577641   3.157188
    22  H    5.261629   3.776391   3.786416   3.102792   2.587954
    23  H    5.268991   3.102052   2.586155   3.772341   3.790194
    24  H    3.641810   4.181067   3.902316   3.683777   2.950556
    25  H    3.049578   4.762925   4.854106   4.803253   4.913247
    26  H    2.559755   4.535846   5.329605   5.165660   6.204834
    27  H    3.151593   4.420431   4.599567   5.545118   6.299589
    28  H    3.754753   5.740773   6.134482   6.240644   6.891448
    29  H    2.635394   5.259841   6.270890   4.441677   5.112277
    30  H    3.300884   5.626978   6.274348   4.508313   4.530347
    31  H    3.797505   6.281469   6.907949   5.739755   6.071173
                   21         22         23         24         25
    21  H    0.000000
    22  H    1.770969   0.000000
    23  H    1.771626   1.772836   0.000000
    24  H    4.943455   4.429451   4.725443   0.000000
    25  H    6.552415   6.647084   6.631209   2.737919   0.000000
    26  H    6.865307   7.689920   7.415334   5.180917   3.074879
    27  H    6.848996   7.489671   6.964370   4.594049   2.501308
    28  H    8.010617   8.543609   8.304157   5.173437   2.512221
    29  H    6.834789   7.293416   7.655341   4.637002   3.067013
    30  H    6.883218   6.902955   7.443108   3.567805   2.448718
    31  H    8.012357   8.263700   8.529939   4.733108   2.519952
                   26         27         28         29         30
    26  H    0.000000
    27  H    1.771334   0.000000
    28  H    1.769127   1.763537   0.000000
    29  H    2.706818   3.871160   3.141402   0.000000
    30  H    3.851407   4.346386   3.679626   1.777141   0.000000
    31  H    3.065790   3.684312   2.403962   1.768746   1.765259
                   31
    31  H    0.000000
 Stoichiometry    C10H20O
 Framework group  C1[X(C10H20O)]
 Deg. of freedom    87
 Full point group                 C1      NOp   1
 Largest Abelian subgroup         C1      NOp   1
 Largest concise Abelian subgroup C1      NOp   1
                         Standard orientation:                         
 ---------------------------------------------------------------------
 Center     Atomic      Atomic             Coordinates (Angstroms)
 Number     Number       Type             X           Y           Z
 ---------------------------------------------------------------------
      1          6           0       -2.269092    0.082550    0.166252
      2          6           0       -0.027338   -1.125054   -0.179938
      3          6           0       -0.057889    1.322889    0.476345
      4          6           0        0.723047    0.226839   -0.283586
      5          6           0       -1.527309    1.422551    0.038914
      6          6           0       -1.500246   -1.002794   -0.605322
      7          6           0       -3.726848    0.182196   -0.295188
      8          8           0        0.095331   -1.713832    1.121950
      9          6           0        2.206163    0.127840    0.165885
     10          6           0        2.971942    1.440059   -0.078220
     11          6           0        2.949738   -1.035382   -0.512349
     12          1           0       -2.278296   -0.198168    1.233102
     13          1           0        0.454419   -1.852688   -0.839217
     14          1           0        0.425303    2.295667    0.339457
     15          1           0       -0.011665    1.120186    1.559148
     16          1           0        0.716964    0.499056   -1.352615
     17          1           0       -1.570435    1.751652   -1.010997
     18          1           0       -2.040311    2.196157    0.626124
     19          1           0       -1.538566   -0.767353   -1.679873
     20          1           0       -1.980942   -1.980519   -0.475357
     21          1           0       -3.783655    0.457060   -1.356418
     22          1           0       -4.249893   -0.773508   -0.171236
     23          1           0       -4.274632    0.941998    0.275279
     24          1           0       -0.279818   -1.094412    1.766690
     25          1           0        2.206210   -0.071969    1.246616
     26          1           0        2.963274    1.708451   -1.143330
     27          1           0        2.556157    2.283685    0.481781
     28          1           0        4.020098    1.334404    0.225254
     29          1           0        2.898438   -0.957571   -1.606995
     30          1           0        2.541967   -2.006115   -0.217134
     31          1           0        4.009735   -1.025525   -0.232636
 ---------------------------------------------------------------------
 Rotational constants (GHZ):      1.9749276      0.6717329      0.5632820
 Standard basis: 6-31+G(d,p) (6D, 7F)
 There are   309 symmetry adapted basis functions of A   symmetry.
 Integral buffers will be    131072 words long.
 Raffenetti 2 integral format.
 Two-electron integral symmetry is turned on.
   309 basis functions,   492 primitive gaussians,   309 cartesian basis functions
    44 alpha electrons       44 beta electrons
       nuclear repulsion energy       690.1285691818 Hartrees.
 NAtoms=   31 NActive=   31 NUniq=   31 SFac= 1.00D+00 NAtFMM=   60 NAOKFM=F Big=F
 ------------------------------------------------------------------------------
 Polarizable Continuum Model (PCM)
 =================================
 Model                : PCM.
 Atomic radii         : UFF (Universal Force Field).
 Polarization charges : Total charges.
 Charge compensation  : None.
 Solution method      : Matrix inversion.
 Cavity type          : Scaled VdW (van der Waals Surface) (Alpha=1.100).
 Cavity algorithm     : GePol (No added spheres)
                        Default sphere list used, NSphG=   31.
                        Lebedev-Laikov grids with approx.  5.0 points / Ang**2.
                        Smoothing algorithm: Karplus/York (Gamma=1.0000).
                        Polarization charges: spherical gaussians, with
                                              point-specific exponents (IZeta= 3).
                        Self-potential: point-specific (ISelfS= 7).
                        Self-field    : sphere-specific E.n sum rule (ISelfD= 2).
 Solvent              : Benzene, Eps=   2.270600 Eps(inf)=   2.253301
 ------------------------------------------------------------------------------
 One-electron integrals computed using PRISM.
 NBasis=   309 RedAO= T  NBF=   309
 NBsUse=   309 1.00D-06 NBFU=   309
 Harris functional with IExCor=  908 diagonalized for initial guess.
 ExpMin= 4.38D-02 ExpMax= 5.48D+03 ExpMxC= 8.25D+02 IAcc=2 IRadAn=         4 AccDes= 0.00D+00
 HarFok:  IExCor=  908 AccDes= 0.00D+00 IRadAn=         4 IDoV= 1
 ScaDFX=  1.000000  1.000000  1.000000  1.000000
 FoFCou: FMM=F IPFlag=           0 FMFlag=      100000 FMFlg1=           0
         NFxFlg=           0 DoJE=T BraDBF=F KetDBF=T FulRan=T
         Omega=  0.000000  0.000000  1.000000  0.000000  0.000000 ICntrl=     500 IOpCl=  0
         NMat0=    1 NMatS0=    1 NMatT0=    0 NMatD0=    1 NMtDS0=    0 NMtDT0=    0
         I1Cent=           4 NGrid=           0.
 Petite list used in FoFCou.
 Initial guess orbital symmetries:
       Occupied  (A) (A) (A) (A) (A) (A) (A) (A) (A) (A) (A) (A)
                 (A) (A) (A) (A) (A) (A) (A) (A) (A) (A) (A) (A)
                 (A) (A) (A) (A) (A) (A) (A) (A) (A) (A) (A) (A)
                 (A) (A) (A) (A) (A) (A) (A) (A)
       Virtual   (A) (A) (A) (A) (A) (A) (A) (A) (A) (A) (A) (A)
                 (A) (A) (A) (A) (A) (A) (A) (A) (A) (A) (A) (A)
                 (A) (A) (A) (A) (A) (A) (A) (A) (A) (A) (A) (A)
                 (A) (A) (A) (A) (A) (A) (A) (A) (A) (A) (A) (A)
                 (A) (A) (A) (A) (A) (A) (A) (A) (A) (A) (A) (A)
                 (A) (A) (A) (A) (A) (A) (A) (A) (A) (A) (A) (A)
                 (A) (A) (A) (A) (A) (A) (A) (A) (A) (A) (A) (A)
                 (A) (A) (A) (A) (A) (A) (A) (A) (A) (A) (A) (A)
                 (A) (A) (A) (A) (A) (A) (A) (A) (A) (A) (A) (A)
                 (A) (A) (A) (A) (A) (A) (A) (A) (A) (A) (A) (A)
                 (A) (A) (A) (A) (A) (A) (A) (A) (A) (A) (A) (A)
                 (A) (A) (A) (A) (A) (A) (A) (A) (A) (A) (A) (A)
                 (A) (A) (A) (A) (A) (A) (A) (A) (A) (A) (A) (A)
                 (A) (A) (A) (A) (A) (A) (A) (A) (A) (A) (A) (A)
                 (A) (A) (A) (A) (A) (A) (A) (A) (A) (A) (A) (A)
                 (A) (A) (A) (A) (A) (A) (A) (A) (A) (A) (A) (A)
                 (A) (A) (A) (A) (A) (A) (A) (A) (A) (A) (A) (A)
                 (A) (A) (A) (A) (A) (A) (A) (A) (A) (A) (A) (A)
                 (A) (A) (A) (A) (A) (A) (A) (A) (A) (A) (A) (A)
                 (A) (A) (A) (A) (A) (A) (A) (A) (A) (A) (A) (A)
                 (A) (A) (A) (A) (A) (A) (A) (A) (A) (A) (A) (A)
                 (A) (A) (A) (A) (A) (A) (A) (A) (A) (A) (A) (A)
                 (A)
 The electronic state of the initial guess is 1-A.
 Requested convergence on RMS density matrix=1.00D-08 within 128 cycles.
 Requested convergence on MAX density matrix=1.00D-06.
 Requested convergence on             energy=1.00D-06.
 No special actions if energy rises.
 Error on total polarization charges =  0.00936
 SCF Done:  E(RmPW1PW91) =  -468.283838195     A.U. after   12 cycles
             Convg  =    0.6983D-08             -V/T =  2.0099
 Range of M.O.s used for correlation:     1   309
 NBasis=   309 NAE=    44 NBE=    44 NFC=     0 NFV=     0
 NROrb=    309 NOA=    44 NOB=    44 NVA=   265 NVB=   265

 **** Warning!!: The largest alpha MO coefficient is  0.88653432D+02

 NEqPCM:  Using equilibrium solvation (IEInf=0, Eps=   2.2706, EpsInf=   2.2533)
          Differentiating once with respect to magnetic field using GIAOs.
          Electric field/nuclear overlap derivatives assumed to be zero.
 FoFCou: FMM=F IPFlag=           0 FMFlag=    10101102 FMFlg1=           0
         NFxFlg=    40000000 DoJE=F BraDBF=F KetDBF=T FulRan=T
         Omega=  0.000000  0.000000  1.000000  0.000000  0.000000 ICntrl=    6100 IOpCl=  0
         NMat0=    1 NMatS0=    1 NMatT0=    0 NMatD0=    1 NMtDS0=    0 NMtDT0=    0
         I1Cent=           7 NGrid=        1925.
 Symmetry not used in FoFCou.
          There are     3 degrees of freedom in the 1st order CPHF.  IDoFFX=0.
      3 vectors produced by pass  0 Test12= 3.89D-13 3.33D-08 XBig12= 4.25D+01 1.47D+00.
 AX will form     3 AO Fock derivatives at one time.
      3 vectors produced by pass  1 Test12= 3.89D-13 3.33D-08 XBig12= 8.98D-02 4.70D-02.
      3 vectors produced by pass  2 Test12= 3.89D-13 3.33D-08 XBig12= 2.03D-04 2.42D-03.
      3 vectors produced by pass  3 Test12= 3.89D-13 3.33D-08 XBig12= 1.03D-06 2.50D-04.
      3 vectors produced by pass  4 Test12= 3.89D-13 3.33D-08 XBig12= 3.08D-09 1.29D-05.
      3 vectors produced by pass  5 Test12= 3.89D-13 3.33D-08 XBig12= 6.29D-12 5.09D-07.
      1 vectors produced by pass  6 Test12= 3.89D-13 3.33D-08 XBig12= 2.52D-14 3.50D-08.
 Inverted reduced A of dimension    19 with in-core refinement.
 Calculating GIAO nuclear magnetic shielding tensors.
 SCF GIAO Magnetic shielding tensor (ppm):
      1  C    Isotropic =   167.2385   Anisotropy =    16.2559
   XX=   168.5160   YX=     5.3480   ZX=     3.9366
   XY=    10.8132   YY=   169.3884   ZY=    -1.1793
   XZ=     9.9499   YZ=    -2.2818   ZZ=   163.8112
   Eigenvalues:   155.7031   167.9366   178.0758
      2  C    Isotropic =   126.9238   Anisotropy =    49.9015
   XX=   116.7470   YX=     6.0330   ZX=     6.2208
   XY=     5.9649   YY=   112.7756   ZY=   -21.4389
   XZ=     2.6798   YZ=   -19.5583   ZZ=   151.2489
   Eigenvalues:   100.6124   119.9675   160.1915
      3  C    Isotropic =   168.9279   Anisotropy =    24.1872
   XX=   183.9607   YX=    -0.6131   ZX=     3.4325
   XY=    -9.5678   YY=   157.3081   ZY=     2.2290
   XZ=     0.6487   YZ=     0.8979   ZZ=   165.5151
   Eigenvalues:   155.9830   165.7481   185.0527
      4  C    Isotropic =   147.2148   Anisotropy =    17.9927
   XX=   156.4103   YX=     2.8740   ZX=     0.5377
   XY=    -0.5988   YY=   135.0085   ZY=   -11.6366
   XZ=     8.2361   YZ=    -6.0842   ZZ=   150.2256
   Eigenvalues:   130.6134   151.8210   159.2099
      5  C    Isotropic =   160.1248   Anisotropy =    19.8915
   XX=   165.3303   YX=     6.6725   ZX=     4.6255
   XY=    12.3263   YY=   161.9140   ZY=    -1.7269
   XZ=     0.0465   YZ=     0.8130   ZZ=   153.1302
   Eigenvalues:   151.5902   155.3985   173.3858
      6  C    Isotropic =   152.9591   Anisotropy =    23.0497
   XX=   163.7220   YX=    -8.3191   ZX=     9.0903
   XY=   -10.4279   YY=   146.1547   ZY=    -4.0704
   XZ=    -4.0815   YZ=    -0.6191   ZZ=   149.0005
   Eigenvalues:   141.8933   148.6584   168.3255
      7  C    Isotropic =   173.0165   Anisotropy =    38.1508
   XX=   196.5642   YX=    -0.9638   ZX=     5.4288
   XY=    -2.3957   YY=   162.9334   ZY=     0.3037
   XZ=    11.4039   YZ=     1.1646   ZZ=   159.5519
   Eigenvalues:   157.5133   163.0859   198.4504
      8  O    Isotropic =   300.1492   Anisotropy =    21.9518
   XX=   297.7075   YX=    -9.6320   ZX=     3.5020
   XY=    -7.4069   YY=   310.0217   ZY=    -3.8726
   XZ=     1.8826   YZ=    -0.0954   ZZ=   292.7183
   Eigenvalues:   291.2627   294.4011   314.7837
      9  C    Isotropic =   163.4667   Anisotropy =    18.2976
   XX=   174.2559   YX=    -6.6859   ZX=    -1.4022
   XY=    -2.3476   YY=   160.4104   ZY=     1.8808
   XZ=     0.0884   YZ=     1.7198   ZZ=   155.7336
   Eigenvalues:   155.0769   159.6580   175.6651
     10  C    Isotropic =   174.6922   Anisotropy =    31.8647
   XX=   173.6687   YX=    14.0300   ZX=    -1.3262
   XY=    11.2872   YY=   187.5770   ZY=    -1.9239
   XZ=    -2.0095   YZ=    -8.5599   ZZ=   162.8309
   Eigenvalues:   161.6364   166.5050   195.9353
     11  C    Isotropic =   175.2246   Anisotropy =    30.2031
   XX=   173.2352   YX=   -12.5883   ZX=    -5.6536
   XY=    -9.6630   YY=   183.0231   ZY=     8.1403
   XZ=    -4.0684   YZ=    12.8725   ZZ=   169.4157
   Eigenvalues:   163.4311   166.8828   195.3600
     12  H    Isotropic =    30.1169   Anisotropy =     5.5992
   XX=    31.0097   YX=    -0.4280   ZX=    -1.2527
   XY=    -0.7327   YY=    26.4413   ZY=    -2.1816
   XZ=    -1.0336   YZ=    -2.0654   ZZ=    32.8996
   Eigenvalues:    25.6567    30.8442    33.8497
     13  H    Isotropic =    27.5577   Anisotropy =     4.7278
   XX=    29.0199   YX=    -0.7252   ZX=    -0.5907
   XY=    -1.0327   YY=    26.6564   ZY=     1.9377
   XZ=    -1.4121   YZ=     3.7188   ZZ=    26.9967
   Eigenvalues:    23.9928    27.9707    30.7096
     14  H    Isotropic =    29.7463   Anisotropy =     8.9744
   XX=    33.1674   YX=     2.7654   ZX=    -0.4793
   XY=     2.1164   YY=    33.3761   ZY=     0.7984
   XZ=     0.1337   YZ=     0.7259   ZZ=    22.6953
   Eigenvalues:    22.6293    30.8803    35.7292
     15  H    Isotropic =    30.6177   Anisotropy =     6.0331
   XX=    29.9329   YX=    -0.8026   ZX=     0.8457
   XY=    -0.1012   YY=    27.9851   ZY=     2.3585
   XZ=     0.2409   YZ=     1.8663   ZZ=    33.9350
   Eigenvalues:    27.1816    30.0317    34.6398
     16  H    Isotropic =    30.6794   Anisotropy =     4.4308
   XX=    31.5548   YX=     0.1391   ZX=    -0.7884
   XY=     0.4577   YY=    27.7760   ZY=    -1.7086
   XZ=    -0.8405   YZ=    -1.8137   ZZ=    32.7075
   Eigenvalues:    27.2113    31.1937    33.6333
     17  H    Isotropic =    30.6403   Anisotropy =     6.9881
   XX=    30.7349   YX=    -0.2249   ZX=     1.9430
   XY=    -0.4661   YY=    30.3948   ZY=    -4.4051
   XZ=     1.3125   YZ=    -4.1024   ZZ=    30.7912
   Eigenvalues:    26.1589    30.4630    35.2991
     18  H    Isotropic =    30.0015   Anisotropy =     9.0105
   XX=    31.0580   YX=    -2.4866   ZX=    -1.1383
   XY=    -2.7597   YY=    32.6874   ZY=     3.7817
   XZ=    -0.7741   YZ=     3.8006   ZZ=    26.2590
   Eigenvalues:    24.4934    29.5025    36.0085
     19  H    Isotropic =    30.5082   Anisotropy =     6.5795
   XX=    30.3871   YX=    -0.3308   ZX=     1.9445
   XY=    -0.1779   YY=    27.1701   ZY=     1.5317
   XZ=     1.4442   YZ=     1.6513   ZZ=    33.9674
   Eigenvalues:    26.7025    29.9275    34.8945
     20  H    Isotropic =    29.7190   Anisotropy =     7.9961
   XX=    30.1252   YX=     2.1901   ZX=     0.5223
   XY=     1.6098   YY=    34.0247   ZY=     1.3785
   XZ=     1.3643   YZ=     1.2873   ZZ=    25.0070
   Eigenvalues:    24.7261    29.3811    35.0497
     21  H    Isotropic =    31.0104   Anisotropy =     8.6531
   XX=    31.6616   YX=    -0.9983   ZX=     3.9289
   XY=    -0.7400   YY=    27.5944   ZY=    -1.6738
   XZ=     3.1241   YZ=    -1.6823   ZZ=    33.7753
   Eigenvalues:    27.1679    29.0842    36.7791
     22  H    Isotropic =    30.6241   Anisotropy =    10.7408
   XX=    34.6023   YX=     5.1316   ZX=    -0.1269
   XY=     3.9543   YY=    31.2797   ZY=    -0.8571
   XZ=     0.1171   YZ=    -0.0904   ZZ=    25.9904
   Eigenvalues:    25.9161    28.1717    37.7846
     23  H    Isotropic =    30.5416   Anisotropy =    10.5912
   XX=    34.6750   YX=    -4.3400   ZX=    -2.6875
   XY=    -3.2666   YY=    29.3104   ZY=     2.6788
   XZ=    -1.7628   YZ=     2.0687   ZZ=    27.6394
   Eigenvalues:    25.9288    28.0935    37.6024
     24  H    Isotropic =    30.5115   Anisotropy =    13.7683
   XX=    25.4656   YX=    -3.9010   ZX=    -4.4846
   XY=    -3.9203   YY=    29.7295   ZY=     3.4242
   XZ=    -4.0752   YZ=     2.7858   ZZ=    36.3395
   Eigenvalues:    22.7468    29.0975    39.6904
     25  H    Isotropic =    29.9303   Anisotropy =     4.9125
   XX=    29.3039   YX=     0.5637   ZX=     0.4016
   XY=     0.8670   YY=    27.5878   ZY=    -1.3265
   XZ=     0.3181   YZ=    -1.2529   ZZ=    32.8991
   Eigenvalues:    27.0250    29.5605    33.2052
     26  H    Isotropic =    31.0635   Anisotropy =     8.4867
   XX=    29.6641   YX=     1.9700   ZX=    -2.2264
   XY=     2.0340   YY=    30.6418   ZY=    -4.1317
   XZ=    -1.6008   YZ=    -3.3351   ZZ=    32.8846
   Eigenvalues:    27.6633    28.8059    36.7213
     27  H    Isotropic =    30.3415   Anisotropy =     8.5902
   XX=    30.4574   YX=     1.4606   ZX=    -0.9557
   XY=     0.1281   YY=    34.5834   ZY=     4.2371
   XZ=    -0.7938   YZ=     3.4007   ZZ=    25.9838
   Eigenvalues:    24.3347    30.6216    36.0683
     28  H    Isotropic =    30.7117   Anisotropy =    10.6413
   XX=    36.5482   YX=     1.8185   ZX=     2.4930
   XY=     3.1298   YY=    28.9654   ZY=     0.4358
   XZ=     2.2779   YZ=     0.4673   ZZ=    26.6214
   Eigenvalues:    26.0728    28.2563    37.8059
     29  H    Isotropic =    31.0792   Anisotropy =     8.5233
   XX=    29.7610   YX=    -1.0392   ZX=    -2.4385
   XY=    -1.1249   YY=    28.3249   ZY=     2.6499
   XZ=    -2.0097   YZ=     2.1279   ZZ=    35.1518
   Eigenvalues:    27.4874    28.9888    36.7614
     30  H    Isotropic =    29.9869   Anisotropy =     8.3043
   XX=    30.0523   YX=    -0.8924   ZX=    -1.6463
   XY=     0.0161   YY=    35.4727   ZY=    -0.8977
   XZ=    -1.4342   YZ=    -0.1568   ZZ=    24.4358
   Eigenvalues:    24.0076    30.4300    35.5231
     31  H    Isotropic =    30.7801   Anisotropy =    10.5872
   XX=    36.7636   YX=    -2.4311   ZX=     1.3570
   XY=    -3.4986   YY=    29.0870   ZY=     0.4719
   XZ=     0.7379   YZ=     0.4529   ZZ=    26.4896
   Eigenvalues:    26.1207    28.3813    37.8382
 End of Minotr Frequency-dependent properties file   721 does not exist.
 End of Minotr Frequency-dependent properties file   722 does not exist.

 **********************************************************************

            Population analysis using the SCF density.

 **********************************************************************

 Orbital symmetries:
       Occupied  (A) (A) (A) (A) (A) (A) (A) (A) (A) (A) (A) (A)
                 (A) (A) (A) (A) (A) (A) (A) (A) (A) (A) (A) (A)
                 (A) (A) (A) (A) (A) (A) (A) (A) (A) (A) (A) (A)
                 (A) (A) (A) (A) (A) (A) (A) (A)
       Virtual   (A) (A) (A) (A) (A) (A) (A) (A) (A) (A) (A) (A)
                 (A) (A) (A) (A) (A) (A) (A) (A) (A) (A) (A) (A)
                 (A) (A) (A) (A) (A) (A) (A) (A) (A) (A) (A) (A)
                 (A) (A) (A) (A) (A) (A) (A) (A) (A) (A) (A) (A)
                 (A) (A) (A) (A) (A) (A) (A) (A) (A) (A) (A) (A)
                 (A) (A) (A) (A) (A) (A) (A) (A) (A) (A) (A) (A)
                 (A) (A) (A) (A) (A) (A) (A) (A) (A) (A) (A) (A)
                 (A) (A) (A) (A) (A) (A) (A) (A) (A) (A) (A) (A)
                 (A) (A) (A) (A) (A) (A) (A) (A) (A) (A) (A) (A)
                 (A) (A) (A) (A) (A) (A) (A) (A) (A) (A) (A) (A)
                 (A) (A) (A) (A) (A) (A) (A) (A) (A) (A) (A) (A)
                 (A) (A) (A) (A) (A) (A) (A) (A) (A) (A) (A) (A)
                 (A) (A) (A) (A) (A) (A) (A) (A) (A) (A) (A) (A)
                 (A) (A) (A) (A) (A) (A) (A) (A) (A) (A) (A) (A)
                 (A) (A) (A) (A) (A) (A) (A) (A) (A) (A) (A) (A)
                 (A) (A) (A) (A) (A) (A) (A) (A) (A) (A) (A) (A)
                 (A) (A) (A) (A) (A) (A) (A) (A) (A) (A) (A) (A)
                 (A) (A) (A) (A) (A) (A) (A) (A) (A) (A) (A) (A)
                 (A) (A) (A) (A) (A) (A) (A) (A) (A) (A) (A) (A)
                 (A) (A) (A) (A) (A) (A) (A) (A) (A) (A) (A) (A)
                 (A) (A) (A) (A) (A) (A) (A) (A) (A) (A) (A) (A)
                 (A) (A) (A) (A) (A) (A) (A) (A) (A) (A) (A) (A)
                 (A)
 The electronic state is 1-A.
 Alpha  occ. eigenvalues --  -19.24452 -10.29331 -10.25338 -10.24978 -10.24932
 Alpha  occ. eigenvalues --  -10.24506 -10.24298 -10.24002 -10.23586 -10.23209
 Alpha  occ. eigenvalues --  -10.22896  -1.04937  -0.86032  -0.82380  -0.76870
 Alpha  occ. eigenvalues --   -0.75778  -0.70009  -0.69628  -0.63572  -0.62247
 Alpha  occ. eigenvalues --   -0.57609  -0.56940  -0.51304  -0.48911  -0.47235
 Alpha  occ. eigenvalues --   -0.45255  -0.45049  -0.44413  -0.42776  -0.42212
 Alpha  occ. eigenvalues --   -0.40302  -0.39960  -0.39247  -0.38981  -0.36914
 Alpha  occ. eigenvalues --   -0.35990  -0.35377  -0.34851  -0.34316  -0.32900
 Alpha  occ. eigenvalues --   -0.32774  -0.31818  -0.29889  -0.27788
 Alpha virt. eigenvalues --    0.00633   0.01732   0.01982   0.02670   0.03547
 Alpha virt. eigenvalues --    0.04352   0.04607   0.05080   0.06059   0.06577
 Alpha virt. eigenvalues --    0.07052   0.07278   0.07825   0.08909   0.09475
 Alpha virt. eigenvalues --    0.09741   0.09952   0.10513   0.10804   0.11340
 Alpha virt. eigenvalues --    0.11451   0.12743   0.13752   0.14061   0.14513
 Alpha virt. eigenvalues --    0.15147   0.16190   0.16478   0.17456   0.17693
 Alpha virt. eigenvalues --    0.18216   0.18450   0.18946   0.19394   0.19810
 Alpha virt. eigenvalues --    0.20383   0.20986   0.21563   0.21830   0.22431
 Alpha virt. eigenvalues --    0.22690   0.23479   0.23841   0.24351   0.24439
 Alpha virt. eigenvalues --    0.25539   0.25841   0.26145   0.26489   0.26856
 Alpha virt. eigenvalues --    0.27722   0.27957   0.28288   0.29104   0.29641
 Alpha virt. eigenvalues --    0.30922   0.31629   0.31779   0.32257   0.33382
 Alpha virt. eigenvalues --    0.33813   0.34737   0.35500   0.36553   0.37081
 Alpha virt. eigenvalues --    0.37403   0.37811   0.39317   0.40204   0.40888
 Alpha virt. eigenvalues --    0.41763   0.44128   0.44392   0.49079   0.53860
 Alpha virt. eigenvalues --    0.62693   0.63279   0.65152   0.65870   0.66860
 Alpha virt. eigenvalues --    0.67233   0.68320   0.69625   0.70966   0.72778
 Alpha virt. eigenvalues --    0.73418   0.73928   0.75043   0.75891   0.76678
 Alpha virt. eigenvalues --    0.76986   0.78385   0.79375   0.82107   0.83516
 Alpha virt. eigenvalues --    0.85684   0.87747   0.88843   0.89229   0.90596
 Alpha virt. eigenvalues --    0.96803   0.97566   0.99793   1.00103   1.00758
 Alpha virt. eigenvalues --    1.01186   1.02353   1.02777   1.03858   1.04588
 Alpha virt. eigenvalues --    1.05161   1.06980   1.08806   1.09965   1.11269
 Alpha virt. eigenvalues --    1.12067   1.14936   1.15083   1.15874   1.17134
 Alpha virt. eigenvalues --    1.17234   1.18312   1.19341   1.19744   1.21096
 Alpha virt. eigenvalues --    1.22471   1.26000   1.26557   1.32719   1.33425
 Alpha virt. eigenvalues --    1.34015   1.37548   1.41607   1.42422   1.46347
 Alpha virt. eigenvalues --    1.49334   1.49577   1.51240   1.53431   1.56074
 Alpha virt. eigenvalues --    1.58131   1.59844   1.61595   1.64307   1.65341
 Alpha virt. eigenvalues --    1.67809   1.69935   1.72053   1.76450   1.78533
 Alpha virt. eigenvalues --    1.82533   1.84110   1.86342   1.87338   1.87906
 Alpha virt. eigenvalues --    1.89563   1.90882   1.92908   1.93989   1.94499
 Alpha virt. eigenvalues --    1.95757   1.97132   1.99312   2.01847   2.02061
 Alpha virt. eigenvalues --    2.04531   2.05116   2.05815   2.07290   2.08003
 Alpha virt. eigenvalues --    2.09908   2.11232   2.12531   2.13498   2.15434
 Alpha virt. eigenvalues --    2.15866   2.16422   2.17217   2.18081   2.19592
 Alpha virt. eigenvalues --    2.20483   2.21880   2.23202   2.26099   2.29781
 Alpha virt. eigenvalues --    2.32702   2.33375   2.33894   2.35291   2.37886
 Alpha virt. eigenvalues --    2.38673   2.39089   2.41998   2.42649   2.43067
 Alpha virt. eigenvalues --    2.46874   2.47428   2.51273   2.54302   2.57017
 Alpha virt. eigenvalues --    2.58873   2.60447   2.62023   2.64371   2.66436
 Alpha virt. eigenvalues --    2.67294   2.70178   2.71633   2.72314   2.73307
 Alpha virt. eigenvalues --    2.75290   2.75612   2.76856   2.77861   2.79326
 Alpha virt. eigenvalues --    2.80382   2.82731   2.83383   2.85209   2.85615
 Alpha virt. eigenvalues --    2.88333   2.89161   2.91059   2.91703   2.92947
 Alpha virt. eigenvalues --    2.93369   2.94573   2.95789   2.97700   3.00111
 Alpha virt. eigenvalues --    3.01348   3.02091   3.05965   3.12463   3.28912
 Alpha virt. eigenvalues --    3.29272   3.30918   3.34753   3.36861   3.38391
 Alpha virt. eigenvalues --    3.40070   3.42001   3.48513   3.49036   3.49299
 Alpha virt. eigenvalues --    3.50583   3.53317   3.54831   3.55170   3.56366
 Alpha virt. eigenvalues --    3.58562   3.60735   3.62140   3.64227   4.34449
 Alpha virt. eigenvalues --    4.40265   4.44362   4.52277   4.59532   4.60083
 Alpha virt. eigenvalues --    4.62680   4.72476   4.84401   4.86901   4.93201
          Condensed to atoms (all electrons):
              1          2          3          4          5          6
     1  C    7.840242   0.194809   0.066609   0.327647  -0.318392  -0.681348
     2  C    0.194809   7.031177  -0.079968  -0.820549  -0.000032  -0.625324
     3  C    0.066609  -0.079968   5.814020  -0.134200   0.000664  -0.053037
     4  C    0.327647  -0.820549  -0.134200   8.441906  -0.345879  -0.283768
     5  C   -0.318392  -0.000032   0.000664  -0.345879   6.033055   0.114533
     6  C   -0.681348  -0.625324  -0.053037  -0.283768   0.114533   6.896530
     7  C   -1.353278  -0.439175  -0.142029  -0.048774   0.213209   0.407986
     8  O   -0.036713   0.159990   0.020642  -0.066600  -0.033360  -0.011790
     9  C   -0.160886   0.514014   0.229088  -2.050341   0.112297   0.235280
    10  C   -0.004117  -0.102898  -0.027835   0.441326   0.007291  -0.039812
    11  C    0.055531  -0.148317  -0.041335   0.389317  -0.081383  -0.075109
    12  H    0.241795  -0.054674  -0.011343   0.004966  -0.012740   0.002071
    13  H    0.041786   0.250245   0.007421   0.090824  -0.011416   0.000023
    14  H    0.022405   0.026894   0.351182  -0.076728   0.004966   0.001832
    15  H    0.004110   0.002891   0.405453  -0.014496  -0.055996  -0.028535
    16  H    0.008687  -0.030549  -0.021201   0.388836  -0.017401  -0.031313
    17  H   -0.075316  -0.000151  -0.061201   0.027058   0.430561  -0.017060
    18  H   -0.045436  -0.007021  -0.029447   0.032598   0.349226   0.043579
    19  H   -0.073186  -0.091690   0.019262   0.021978  -0.028755   0.411040
    20  H   -0.042157  -0.032616  -0.011201   0.037953   0.039565   0.363338
    21  H   -0.138788  -0.010911   0.002742   0.003408   0.002203   0.010035
    22  H   -0.113902   0.003552  -0.013113   0.001981   0.030963  -0.006490
    23  H   -0.133281  -0.015053  -0.002861   0.001465  -0.001959   0.037304
    24  H    0.054606   0.048792  -0.020264   0.048590  -0.006785  -0.090720
    25  H   -0.001673  -0.028290   0.000455  -0.004726  -0.004130  -0.000018
    26  H   -0.000369  -0.003673   0.006257  -0.004111   0.000984  -0.000583
    27  H    0.000871   0.002517  -0.001943  -0.003824   0.001669  -0.001233
    28  H   -0.000184  -0.006810  -0.002759   0.056286   0.000716   0.000564
    29  H   -0.000946  -0.014152   0.002427   0.016404  -0.001496   0.006481
    30  H   -0.000114   0.011218   0.000500  -0.022038  -0.001820  -0.004311
    31  H   -0.000018  -0.004169  -0.005450   0.055722   0.000418   0.000164
              7          8          9         10         11         12
     1  C   -1.353278  -0.036713  -0.160886  -0.004117   0.055531   0.241795
     2  C   -0.439175   0.159990   0.514014  -0.102898  -0.148317  -0.054674
     3  C   -0.142029   0.020642   0.229088  -0.027835  -0.041335  -0.011343
     4  C   -0.048774  -0.066600  -2.050341   0.441326   0.389317   0.004966
     5  C    0.213209  -0.033360   0.112297   0.007291  -0.081383  -0.012740
     6  C    0.407986  -0.011790   0.235280  -0.039812  -0.075109   0.002071
     7  C    6.596243   0.051423   0.049705  -0.020245   0.005252   0.082429
     8  O    0.051423   8.230215  -0.023422   0.032656  -0.034726   0.007313
     9  C    0.049705  -0.023422   8.308108  -0.542902  -0.594644   0.003863
    10  C   -0.020245   0.032656  -0.542902   5.706419  -0.086854   0.000315
    11  C    0.005252  -0.034726  -0.594644  -0.086854   5.852829   0.001287
    12  H    0.082429   0.007313   0.003863   0.000315   0.001287   0.585227
    13  H    0.008604  -0.055537  -0.084747   0.004262   0.024504  -0.000097
    14  H    0.001878  -0.000642   0.022279  -0.015448  -0.005828  -0.000008
    15  H   -0.000647   0.004082  -0.027228   0.000050   0.010807   0.002529
    16  H    0.000307   0.010253  -0.055200  -0.001571   0.013280   0.000051
    17  H    0.002387   0.000537  -0.004363   0.001496   0.002332   0.005152
    18  H   -0.012474  -0.000018  -0.002985  -0.000788   0.000180  -0.004416
    19  H    0.030295   0.010517   0.003833  -0.000329   0.004949   0.005164
    20  H   -0.016419  -0.007008  -0.002558   0.000591  -0.001908  -0.004095
    21  H    0.479970   0.000110   0.000063   0.000080   0.000050   0.004944
    22  H    0.457961  -0.000188  -0.000396  -0.000001  -0.000024  -0.003980
    23  H    0.473982   0.000059  -0.000228  -0.000034  -0.000007  -0.003892
    24  H    0.007605   0.242471  -0.047545  -0.001234   0.015277  -0.000011
    25  H   -0.000453   0.009868   0.295544  -0.028050   0.032481  -0.000001
    26  H   -0.000018   0.000150  -0.090549   0.428820   0.010324   0.000000
    27  H    0.000032  -0.000122  -0.068731   0.439762  -0.007290   0.000000
    28  H   -0.000004   0.000062  -0.151806   0.455510   0.007280   0.000000
    29  H   -0.000137   0.000381  -0.109898   0.001210   0.445434   0.000000
    30  H   -0.000109   0.002603  -0.059296  -0.005623   0.445112   0.000000
    31  H    0.000005   0.000037  -0.156745   0.007605   0.459453   0.000000
             13         14         15         16         17         18
     1  C    0.041786   0.022405   0.004110   0.008687  -0.075316  -0.045436
     2  C    0.250245   0.026894   0.002891  -0.030549  -0.000151  -0.007021
     3  C    0.007421   0.351182   0.405453  -0.021201  -0.061201  -0.029447
     4  C    0.090824  -0.076728  -0.014496   0.388836   0.027058   0.032598
     5  C   -0.011416   0.004966  -0.055996  -0.017401   0.430561   0.349226
     6  C    0.000023   0.001832  -0.028535  -0.031313  -0.017060   0.043579
     7  C    0.008604   0.001878  -0.000647   0.000307   0.002387  -0.012474
     8  O   -0.055537  -0.000642   0.004082   0.010253   0.000537  -0.000018
     9  C   -0.084747   0.022279  -0.027228  -0.055200  -0.004363  -0.002985
    10  C    0.004262  -0.015448   0.000050  -0.001571   0.001496  -0.000788
    11  C    0.024504  -0.005828   0.010807   0.013280   0.002332   0.000180
    12  H   -0.000097  -0.000008   0.002529   0.000051   0.005152  -0.004416
    13  H    0.583186  -0.000112  -0.000121  -0.003654  -0.000071   0.000013
    14  H   -0.000112   0.547416  -0.029532  -0.004541  -0.004108  -0.002800
    15  H   -0.000121  -0.029532   0.564028   0.004961   0.004653  -0.004286
    16  H   -0.003654  -0.004541   0.004961   0.564560   0.002645  -0.000016
    17  H   -0.000071  -0.004108   0.004653   0.002645   0.545530  -0.029272
    18  H    0.000013  -0.002800  -0.004286  -0.000016  -0.029272   0.551794
    19  H   -0.003148  -0.000023   0.000063   0.000977   0.003188  -0.000027
    20  H   -0.004608   0.000010  -0.000017   0.000028  -0.000016  -0.000135
    21  H   -0.000003   0.000000   0.000001  -0.000001   0.003250  -0.000182
    22  H   -0.000003   0.000002   0.000001   0.000000  -0.000015   0.000006
    23  H    0.000002  -0.000004  -0.000001   0.000000  -0.000229   0.002833
    24  H    0.007279  -0.000129   0.000519  -0.000090  -0.000009   0.000042
    25  H    0.000086  -0.000170   0.003611   0.005269   0.000002   0.000000
    26  H    0.000011   0.000138   0.000084   0.003954   0.000005   0.000000
    27  H    0.000002   0.000242   0.000285  -0.000165   0.000012   0.000008
    28  H   -0.000002   0.000016  -0.000033   0.000000   0.000000   0.000000
    29  H   -0.000174   0.000000   0.000004   0.003413   0.000000   0.000000
    30  H   -0.001399   0.000001  -0.000002  -0.000039   0.000000   0.000000
    31  H    0.000096  -0.000002  -0.000001  -0.000039   0.000000   0.000000
             19         20         21         22         23         24
     1  C   -0.073186  -0.042157  -0.138788  -0.113902  -0.133281   0.054606
     2  C   -0.091690  -0.032616  -0.010911   0.003552  -0.015053   0.048792
     3  C    0.019262  -0.011201   0.002742  -0.013113  -0.002861  -0.020264
     4  C    0.021978   0.037953   0.003408   0.001981   0.001465   0.048590
     5  C   -0.028755   0.039565   0.002203   0.030963  -0.001959  -0.006785
     6  C    0.411040   0.363338   0.010035  -0.006490   0.037304  -0.090720
     7  C    0.030295  -0.016419   0.479970   0.457961   0.473982   0.007605
     8  O    0.010517  -0.007008   0.000110  -0.000188   0.000059   0.242471
     9  C    0.003833  -0.002558   0.000063  -0.000396  -0.000228  -0.047545
    10  C   -0.000329   0.000591   0.000080  -0.000001  -0.000034  -0.001234
    11  C    0.004949  -0.001908   0.000050  -0.000024  -0.000007   0.015277
    12  H    0.005164  -0.004095   0.004944  -0.003980  -0.003892  -0.000011
    13  H   -0.003148  -0.004608  -0.000003  -0.000003   0.000002   0.007279
    14  H   -0.000023   0.000010   0.000000   0.000002  -0.000004  -0.000129
    15  H    0.000063  -0.000017   0.000001   0.000001  -0.000001   0.000519
    16  H    0.000977   0.000028  -0.000001   0.000000   0.000000  -0.000090
    17  H    0.003188  -0.000016   0.003250  -0.000015  -0.000229  -0.000009
    18  H   -0.000027  -0.000135  -0.000182   0.000006   0.002833   0.000042
    19  H    0.545787  -0.027079   0.003279  -0.000267  -0.000004  -0.000129
    20  H   -0.027079   0.532824  -0.000134   0.002646  -0.000011  -0.000388
    21  H    0.003279  -0.000134   0.532937  -0.027843  -0.027962   0.000000
    22  H   -0.000267   0.002646  -0.027843   0.528188  -0.025556   0.000000
    23  H   -0.000004  -0.000011  -0.027962  -0.025556   0.531392   0.000007
    24  H   -0.000129  -0.000388   0.000000   0.000000   0.000007   0.388121
    25  H    0.000000   0.000002   0.000000   0.000000   0.000000  -0.000224
    26  H    0.000001   0.000000   0.000000   0.000000   0.000000   0.000000
    27  H    0.000000   0.000000   0.000000   0.000000   0.000000   0.000008
    28  H    0.000000   0.000000   0.000000   0.000000   0.000000  -0.000001
    29  H    0.000004   0.000001   0.000000   0.000000   0.000000  -0.000007
    30  H    0.000002   0.000009   0.000000   0.000000   0.000000  -0.000135
    31  H    0.000000   0.000000   0.000000   0.000000   0.000000   0.000001
             25         26         27         28         29         30
     1  C   -0.001673  -0.000369   0.000871  -0.000184  -0.000946  -0.000114
     2  C   -0.028290  -0.003673   0.002517  -0.006810  -0.014152   0.011218
     3  C    0.000455   0.006257  -0.001943  -0.002759   0.002427   0.000500
     4  C   -0.004726  -0.004111  -0.003824   0.056286   0.016404  -0.022038
     5  C   -0.004130   0.000984   0.001669   0.000716  -0.001496  -0.001820
     6  C   -0.000018  -0.000583  -0.001233   0.000564   0.006481  -0.004311
     7  C   -0.000453  -0.000018   0.000032  -0.000004  -0.000137  -0.000109
     8  O    0.009868   0.000150  -0.000122   0.000062   0.000381   0.002603
     9  C    0.295544  -0.090549  -0.068731  -0.151806  -0.109898  -0.059296
    10  C   -0.028050   0.428820   0.439762   0.455510   0.001210  -0.005623
    11  C    0.032481   0.010324  -0.007290   0.007280   0.445434   0.445112
    12  H   -0.000001   0.000000   0.000000   0.000000   0.000000   0.000000
    13  H    0.000086   0.000011   0.000002  -0.000002  -0.000174  -0.001399
    14  H   -0.000170   0.000138   0.000242   0.000016   0.000000   0.000001
    15  H    0.003611   0.000084   0.000285  -0.000033   0.000004  -0.000002
    16  H    0.005269   0.003954  -0.000165   0.000000   0.003413  -0.000039
    17  H    0.000002   0.000005   0.000012   0.000000   0.000000   0.000000
    18  H    0.000000   0.000000   0.000008   0.000000   0.000000   0.000000
    19  H    0.000000   0.000001   0.000000   0.000000   0.000004   0.000002
    20  H    0.000002   0.000000   0.000000   0.000000   0.000001   0.000009
    21  H    0.000000   0.000000   0.000000   0.000000   0.000000   0.000000
    22  H    0.000000   0.000000   0.000000   0.000000   0.000000   0.000000
    23  H    0.000000   0.000000   0.000000   0.000000   0.000000   0.000000
    24  H   -0.000224   0.000000   0.000008  -0.000001  -0.000007  -0.000135
    25  H    0.563219   0.004831  -0.004005  -0.002947   0.004833  -0.004360
    26  H    0.004831   0.534489  -0.029147  -0.027695   0.002689  -0.000018
    27  H   -0.004005  -0.029147   0.538958  -0.026310  -0.000042  -0.000128
    28  H   -0.002947  -0.027695  -0.026310   0.530363  -0.000123   0.000107
    29  H    0.004833   0.002689  -0.000042  -0.000123   0.537014  -0.028189
    30  H   -0.004360  -0.000018  -0.000128   0.000107  -0.028189   0.513984
    31  H   -0.002722  -0.000180   0.000136   0.003019  -0.028091  -0.024840
             31
     1  C   -0.000018
     2  C   -0.004169
     3  C   -0.005450
     4  C    0.055722
     5  C    0.000418
     6  C    0.000164
     7  C    0.000005
     8  O    0.000037
     9  C   -0.156745
    10  C    0.007605
    11  C    0.459453
    12  H    0.000000
    13  H    0.000096
    14  H   -0.000002
    15  H   -0.000001
    16  H   -0.000039
    17  H    0.000000
    18  H    0.000000
    19  H    0.000000
    20  H    0.000000
    21  H    0.000000
    22  H    0.000000
    23  H    0.000000
    24  H    0.000001
    25  H   -0.002722
    26  H   -0.000180
    27  H    0.000136
    28  H    0.003019
    29  H   -0.028091
    30  H   -0.024840
    31  H    0.533987
 Mulliken atomic charges:
              1
     1  C    0.321006
     2  C    0.269924
     3  C   -0.267533
     4  C   -0.512232
     5  C   -0.420777
     6  C   -0.580310
     7  C   -0.835511
     8  O   -0.513243
     9  C    0.460396
    10  C   -0.649652
    11  C   -0.698253
    12  H    0.148151
    13  H    0.146748
    14  H    0.160812
    15  H    0.152764
    16  H    0.158558
    17  H    0.163004
    18  H    0.159024
    19  H    0.164297
    20  H    0.173383
    21  H    0.162755
    22  H    0.166478
    23  H    0.164039
    24  H    0.354354
    25  H    0.161570
    26  H    0.163605
    27  H    0.158438
    28  H    0.164751
    29  H    0.162958
    30  H    0.178883
    31  H    0.161613
 Sum of Mulliken atomic charges =   0.00000
 Mulliken charges with hydrogens summed into heavy atoms:
              1
     1  C    0.469156
     2  C    0.416672
     3  C    0.046043
     4  C   -0.353674
     5  C   -0.098749
     6  C   -0.242630
     7  C   -0.342240
     8  O   -0.158888
     9  C    0.621966
    10  C   -0.162858
    11  C   -0.194799
 Sum of Mulliken charges with hydrogens summed into heavy atoms =   0.00000
 Electronic spatial extent (au):  <R**2>=           2219.4297
 Charge=              0.0000 electrons
 Dipole moment (field-independent basis, Debye):
    X=             -0.8047    Y=              1.7833    Z=             -0.4200  Tot=              2.0010
 Quadrupole moment (field-independent basis, Debye-Ang):
   XX=            -72.0742   YY=            -76.9748   ZZ=            -70.1235
   XY=              0.7804   XZ=             -1.1460   YZ=              3.0017
 Traceless Quadrupole moment (field-independent basis, Debye-Ang):
   XX=              0.9833   YY=             -3.9173   ZZ=              2.9340
   XY=              0.7804   XZ=             -1.1460   YZ=              3.0017
 Octapole moment (field-independent basis, Debye-Ang**2):
  XXX=              1.1107  YYY=              4.5200  ZZZ=              8.5876  XYY=             -3.6229
  XXY=             -3.4181  XXZ=              5.0808  XZZ=             -2.9823  YZZ=              0.1974
  YYZ=             -5.7706  XYZ=              0.9906
 Hexadecapole moment (field-independent basis, Debye-Ang**3):
 XXXX=          -2177.8363 YYYY=           -683.8323 ZZZZ=           -236.7815 XXXY=             -0.1351
 XXXZ=              3.3148 YYYX=              0.7721 YYYZ=             15.4399 ZZZX=             -3.9324
 ZZZY=            -11.4219 XXYY=           -476.8355 XXZZ=           -407.2035 YYZZ=           -161.8501
 XXYZ=             -0.9535 YYXZ=             -3.1573 ZZXY=              0.9209
 N-N= 6.901285691818D+02 E-N=-2.465449658106D+03  KE= 4.636970442354D+02
 1\1\GINC-COMPUTE-10-2\SP\RmPW1PW91\6-31+G(d,p)\C10H20O1\ASAROTTI.IQUIR
 \19-Sep-2024\0\\# mPW1PW91/6-31+G** nmr scrf=(pcm,solvent=benzene)\\co
 mment\\0,1\C,0,-2.269092,0.08255,0.166252\C,0,-0.027338,-1.125054,-0.1
 79938\C,0,-0.057889,1.322889,0.476345\C,0,0.723047,0.226839,-0.283586\
 C,0,-1.527309,1.422551,0.038914\C,0,-1.500246,-1.002794,-0.605322\C,0,
 -3.726848,0.182196,-0.295188\O,0,0.095331,-1.713832,1.12195\C,0,2.2061
 63,0.12784,0.165885\C,0,2.971942,1.440059,-0.07822\C,0,2.949738,-1.035
 382,-0.512349\H,0,-2.278296,-0.198168,1.233102\H,0,0.454419,-1.852688,
 -0.839217\H,0,0.425303,2.295667,0.339457\H,0,-0.011665,1.120186,1.5591
 48\H,0,0.716964,0.499056,-1.352615\H,0,-1.570435,1.751652,-1.010997\H,
 0,-2.040311,2.196157,0.626124\H,0,-1.538566,-0.767353,-1.679873\H,0,-1
 .980942,-1.980519,-0.475357\H,0,-3.783655,0.45706,-1.356418\H,0,-4.249
 893,-0.773508,-0.171236\H,0,-4.274632,0.941998,0.275279\H,0,-0.279818,
 -1.094412,1.76669\H,0,2.20621,-0.071969,1.246616\H,0,2.963274,1.708451
 ,-1.14333\H,0,2.556157,2.283685,0.481781\H,0,4.020098,1.334404,0.22525
 4\H,0,2.898438,-0.957571,-1.606995\H,0,2.541967,-2.006115,-0.217134\H,
 0,4.009735,-1.025525,-0.232636\\Version=AM64L-G09RevC.01\State=1-A\HF=
 -468.2838382\RMSD=6.983e-09\Dipole=-0.3165824,0.701595,-0.1652241\Quad
 rupole=0.7310723,-2.9124392,2.181367,0.5802169,-0.8519871,2.2316705\PG
 =C01 [X(C10H20O1)]\\@


 One man practicing sportsmanship is far better than 50 preaching it.
 -- Knute K. Rockne
 Job cpu time:  0 days  0 hours  9 minutes 25.2 seconds.
 File lengths (MBytes):  RWF=    121 Int=      0 D2E=      0 Chk=      7 Scr=      1
 Normal termination of Gaussian 09 at Thu Sep 19 09:28:11 2024.
