 Entering Gaussian System, Link 0=g09
 Input=/home/asarotti.iquir/SCF2/03_Mentol06_OptB_NMR_benzene.gjc
 Output=/home/asarotti.iquir/SCF2/03_Mentol06_OptB_NMR_benzene.log
 Initial command:
 /opt/ohpc/pub/apps/software/Gaussian/09/AMD64.SSE4a-enabled/g09/l1.exe /local/asarotti.iquir/Gau-2484699.inp -scrdir=/local/asarotti.iquir/
 Entering Link 1 = /opt/ohpc/pub/apps/software/Gaussian/09/AMD64.SSE4a-enabled/g09/l1.exe PID=   2484700.
  
 Copyright (c) 1988,1990,1992,1993,1995,1998,2003,2009,2011,
            Gaussian, Inc.  All Rights Reserved.
  
 This is part of the Gaussian(R) 09 program.  It is based on
 the Gaussian(R) 03 system (copyright 2003, Gaussian, Inc.),
 the Gaussian(R) 98 system (copyright 1998, Gaussian, Inc.),
 the Gaussian(R) 94 system (copyright 1995, Gaussian, Inc.),
 the Gaussian 92(TM) system (copyright 1992, Gaussian, Inc.),
 the Gaussian 90(TM) system (copyright 1990, Gaussian, Inc.),
 the Gaussian 88(TM) system (copyright 1988, Gaussian, Inc.),
 the Gaussian 86(TM) system (copyright 1986, Carnegie Mellon
 University), and the Gaussian 82(TM) system (copyright 1983,
 Carnegie Mellon University). Gaussian is a federally registered
 trademark of Gaussian, Inc.
  
 This software contains proprietary and confidential information,
 including trade secrets, belonging to Gaussian, Inc.
  
 This software is provided under written license and may be
 used, copied, transmitted, or stored only in accord with that
 written license.
  
 The following legend is applicable only to US Government
 contracts under FAR:
  
                    RESTRICTED RIGHTS LEGEND
  
 Use, reproduction and disclosure by the US Government is
 subject to restrictions as set forth in subparagraphs (a)
 and (c) of the Commercial Computer Software - Restricted
 Rights clause in FAR 52.227-19.
  
 Gaussian, Inc.
 340 Quinnipiac St., Bldg. 40, Wallingford CT 06492
  
  
 ---------------------------------------------------------------
 Warning -- This program may not be used in any manner that
 competes with the business of Gaussian, Inc. or will provide
 assistance to any competitor of Gaussian, Inc.  The licensee
 of this program is prohibited from giving any competitor of
 Gaussian, Inc. access to this program.  By using this program,
 the user acknowledges that Gaussian, Inc. is engaged in the
 business of creating and licensing software in the field of
 computational chemistry and represents and warrants to the
 licensee that it is not a competitor of Gaussian, Inc. and that
 it will not use this program in any manner prohibited above.
 ---------------------------------------------------------------
  

 Cite this work as:
 Gaussian 09, Revision C.01,
 M. J. Frisch, G. W. Trucks, H. B. Schlegel, G. E. Scuseria, 
 M. A. Robb, J. R. Cheeseman, G. Scalmani, V. Barone, B. Mennucci, 
 G. A. Petersson, H. Nakatsuji, M. Caricato, X. Li, H. P. Hratchian, 
 A. F. Izmaylov, J. Bloino, G. Zheng, J. L. Sonnenberg, M. Hada, 
 M. Ehara, K. Toyota, R. Fukuda, J. Hasegawa, M. Ishida, T. Nakajima, 
 Y. Honda, O. Kitao, H. Nakai, T. Vreven, J. A. Montgomery, Jr., 
 J. E. Peralta, F. Ogliaro, M. Bearpark, J. J. Heyd, E. Brothers, 
 K. N. Kudin, V. N. Staroverov, T. Keith, R. Kobayashi, J. Normand, 
 K. Raghavachari, A. Rendell, J. C. Burant, S. S. Iyengar, J. Tomasi, 
 M. Cossi, N. Rega, J. M. Millam, M. Klene, J. E. Knox, J. B. Cross, 
 V. Bakken, C. Adamo, J. Jaramillo, R. Gomperts, R. E. Stratmann, 
 O. Yazyev, A. J. Austin, R. Cammi, C. Pomelli, J. W. Ochterski, 
 R. L. Martin, K. Morokuma, V. G. Zakrzewski, G. A. Voth, 
 P. Salvador, J. J. Dannenberg, S. Dapprich, A. D. Daniels, 
 O. Farkas, J. B. Foresman, J. V. Ortiz, J. Cioslowski, 
 and D. J. Fox, Gaussian, Inc., Wallingford CT, 2010.
 
 ******************************************
 Gaussian 09:  AM64L-G09RevC.01 23-Sep-2011
                19-Sep-2024 
 ******************************************
 %nprocshared=4
 Will use up to    4 processors via shared memory.
 %mem=100mw
 --------------------------------------------------
 # mPW1PW91/6-31+G** nmr scrf=(pcm,solvent=benzene)
 --------------------------------------------------
 1/38=1/1;
 2/12=2,17=6,18=5,40=1/2;
 3/5=1,6=6,7=111,11=2,16=1,25=1,30=1,70=2201,72=12,74=-7/1,2,8,3;
 4//1;
 5/5=2,38=5,53=12/2;
 8/6=1,10=90,11=11/1;
 10/13=100,45=16/2;
 6/7=2,8=2,9=2,10=2,28=1/1;
 99/9=1/99;
 -------
 comment
 -------
 Charge =  0 Multiplicity = 1
 Symbolic Z-Matrix:
 6                    -2.2328    0.0164    0.21539 
 6                     0.08956  -1.0511   -0.07854 
 6                    -0.13698   1.46731   0.12143 
 6                     0.666     0.31629  -0.51829 
 6                    -1.63492   1.37081  -0.20593 
 6                    -1.41512  -1.13586  -0.39638 
 6                    -3.7181   -0.09283  -0.14642 
 8                     0.34431  -1.36425   1.29806 
 6                     2.20456   0.49014  -0.37386 
 6                     2.97798  -0.61411  -1.1123 
 6                     2.72188   0.62735   1.06923 
 1                    -2.15395  -0.05795   1.31299 
 1                     0.60147  -1.85076  -0.6232 
 1                     0.26527   2.42991  -0.22077 
 1                    -0.00705   1.46508   1.21422 
 1                     0.46644   0.36826  -1.6016 
 1                    -1.77759   1.49966  -1.28997 
 1                    -2.183     2.18999   0.27874 
 1                    -1.54749  -1.12468  -1.48878 
 1                    -1.79278  -2.10184  -0.0387 
 1                    -3.86124  -0.02774  -1.23279 
 1                    -4.13987  -1.04812   0.1878 
 1                    -4.3013    0.71293   0.31547 
 1                    -0.02822  -0.65279   1.84128 
 1                     2.43121   1.43893  -0.8858 
 1                     2.87924  -1.58092  -0.60532 
 1                     2.62479  -0.73531  -2.14424 
 1                     4.04705  -0.37457  -1.15281 
 1                     2.54018  -0.28585   1.64249 
 1                     2.2483    1.46286   1.59758 
 1                     3.80166   0.82044   1.06283 
 
                          Input orientation:                          
 ---------------------------------------------------------------------
 Center     Atomic      Atomic             Coordinates (Angstroms)
 Number     Number       Type             X           Y           Z
 ---------------------------------------------------------------------
      1          6           0       -2.232802    0.016402    0.215391
      2          6           0        0.089558   -1.051098   -0.078535
      3          6           0       -0.136976    1.467305    0.121427
      4          6           0        0.666001    0.316288   -0.518285
      5          6           0       -1.634917    1.370810   -0.205928
      6          6           0       -1.415121   -1.135859   -0.396375
      7          6           0       -3.718095   -0.092827   -0.146420
      8          8           0        0.344309   -1.364251    1.298062
      9          6           0        2.204564    0.490143   -0.373860
     10          6           0        2.977977   -0.614105   -1.112300
     11          6           0        2.721878    0.627351    1.069229
     12          1           0       -2.153950   -0.057952    1.312993
     13          1           0        0.601469   -1.850758   -0.623201
     14          1           0        0.265267    2.429911   -0.220766
     15          1           0       -0.007049    1.465084    1.214218
     16          1           0        0.466444    0.368258   -1.601602
     17          1           0       -1.777592    1.499658   -1.289970
     18          1           0       -2.182997    2.189989    0.278736
     19          1           0       -1.547487   -1.124682   -1.488778
     20          1           0       -1.792780   -2.101839   -0.038700
     21          1           0       -3.861235   -0.027737   -1.232792
     22          1           0       -4.139867   -1.048120    0.187800
     23          1           0       -4.301300    0.712932    0.315474
     24          1           0       -0.028216   -0.652785    1.841283
     25          1           0        2.431210    1.438932   -0.885802
     26          1           0        2.879242   -1.580915   -0.605315
     27          1           0        2.624794   -0.735310   -2.144237
     28          1           0        4.047048   -0.374566   -1.152807
     29          1           0        2.540175   -0.285851    1.642487
     30          1           0        2.248299    1.462862    1.597584
     31          1           0        3.801655    0.820436    1.062831
 ---------------------------------------------------------------------
                    Distance matrix (angstroms):
                    1          2          3          4          5
     1  C    0.000000
     2  C    2.572801   0.000000
     3  C    2.550772   2.536465   0.000000
     4  C    3.005207   1.547712   1.542350   0.000000
     5  C    1.539285   2.975850   1.536327   2.550256   0.000000
     6  C    1.539664   1.540216   2.945885   2.540603   2.523484
     7  C    1.532623   3.926973   3.915376   4.418818   2.546646
     8  O    3.117672   1.434567   3.103839   2.495358   3.695928
     9  C    4.501318   2.633608   2.585143   1.555076   3.942764
    10  C    5.414104   3.098806   3.944272   2.561975   5.102959
    11  C    5.064697   3.326208   3.126803   2.616026   4.600046
    12  H    1.102940   2.820641   2.795429   3.383158   2.148925
    13  H    3.496086   1.094610   3.479844   2.170544   3.943861
    14  H    3.500801   3.488342   1.097955   2.171752   2.175457
    15  H    2.837307   2.830497   1.100490   2.185016   2.162327
    16  H    3.272796   2.115738   2.130927   1.102769   2.714541
    17  H    2.161799   3.385289   2.164419   2.822589   1.100956
    18  H    2.175080   3.974518   2.175597   3.501826   1.098337
    19  H    2.162388   2.161970   3.361651   2.813855   2.807281
    20  H    2.178331   2.156117   3.937781   3.481802   3.480255
    21  H    2.179673   4.241267   4.235465   4.596166   2.822565
    22  H    2.184231   4.237804   4.728097   5.045447   3.504428
    23  H    2.184915   4.748334   4.236547   5.052382   2.795400
    24  H    2.819847   1.964237   2.732126   2.643596   3.296589
    25  H    4.998922   3.512159   2.758785   2.123996   4.123137
    26  H    5.418300   2.887999   4.349410   2.916400   5.408310
    27  H    5.452445   3.285463   4.196680   2.754351   5.132048
    28  H    6.439048   4.156138   4.745758   3.508757   6.018940
    29  H    4.990919   3.090800   3.543207   2.923018   4.857217
    30  H    4.907440   3.713426   2.805102   2.880139   4.282580
    31  H    6.146487   4.311035   4.100914   3.547734   5.609722
                    6          7          8          9         10
     6  C    0.000000
     7  C    2.540489   0.000000
     8  O    2.453339   4.495128   0.000000
     9  C    3.968187   5.955625   3.113623   0.000000
    10  C    4.481527   6.785428   3.648119   1.537148   0.000000
    11  C    4.729869   6.593156   3.109932   1.539138   2.523067
    12  H    2.151672   2.139545   2.819209   4.705584   5.703335
    13  H    2.151550   4.687886   1.998517   2.848140   2.723292
    14  H    3.945790   4.715603   4.087634   2.747182   4.173687
    15  H    3.367726   4.248563   2.852301   2.892012   4.318112
    16  H    2.693553   4.454270   3.380023   2.131494   2.740849
    17  H    2.806394   2.758490   4.404810   4.209031   5.207206
    18  H    3.479465   2.783619   4.478719   4.750374   6.036023
    19  H    1.100450   2.752851   3.376798   4.234216   4.569710
    20  H    1.097121   2.784703   2.626427   4.775925   5.111369
    21  H    2.812650   1.097693   5.087051   6.148161   6.865360
    22  H    2.788046   1.096439   4.630384   6.552367   7.248609
    23  H    3.500684   1.096687   5.182842   6.546074   7.535744
    24  H    2.676561   4.228442   0.969561   3.346408   4.214540
    25  H    4.654390   6.380198   4.120953   1.101659   2.136637
    26  H    4.322416   6.778632   3.177369   2.190444   1.096131
    27  H    4.419997   6.681040   4.176793   2.193755   1.097416
    28  H    5.566601   7.835154   4.549342   2.179272   1.096327
    29  H    4.530324   6.511789   2.470507   2.186426   2.808607
    30  H    4.914252   6.407775   3.421616   2.198792   3.491374
    31  H    5.759438   7.670918   4.096515   2.173448   2.732682
                   11         12         13         14         15
    11  C    0.000000
    12  H    4.929783   0.000000
    13  H    3.674436   3.815145   0.000000
    14  H    3.308814   3.794007   4.312669   0.000000
    15  H    2.858297   2.634118   3.839428   1.750493   0.000000
    16  H    3.505346   3.942459   2.428895   2.489497   3.058769
    17  H    5.154801   3.056667   4.162908   2.486331   3.067079
    18  H    5.208120   2.474625   4.989427   2.510192   2.476967
    19  H    5.276409   3.058698   2.427843   4.186772   4.047965
    20  H    5.390559   2.476892   2.477319   4.980508   4.181098
    21  H    7.004700   3.065413   4.859088   4.908386   4.803241
    22  H    7.118122   2.488043   4.876701   5.627507   4.944685
    23  H    7.064029   2.490064   5.611663   4.908065   4.451299
    24  H    3.130149   2.269727   2.811641   3.720375   2.208852
    25  H    2.136656   5.300854   3.773456   2.472978   3.218055
    26  H    2.775842   5.597530   2.293771   4.802860   4.573782
    27  H    3.491795   5.936973   2.766156   4.391552   4.800787
    28  H    2.774411   6.680778   3.785715   4.799548   5.042105
    29  H    1.093425   4.711190   3.367619   4.002784   3.120503
    30  H    1.096136   4.666226   4.315555   2.859020   2.287700
    31  H    1.096923   6.025228   4.496573   4.091952   3.865840
                   16         17         18         19         20
    16  H    0.000000
    17  H    2.532366   0.000000
    18  H    3.724770   1.761178   0.000000
    19  H    2.509485   2.641900   3.809859   0.000000
    20  H    3.694338   3.812701   4.321206   1.765710   0.000000
    21  H    4.361380   2.584139   3.165361   2.573373   3.163267
    22  H    5.140641   3.775622   3.784569   3.088237   2.582720
    23  H    5.150278   3.092813   2.582684   3.770363   3.786958
    24  H    3.625007   4.183070   3.894355   3.690552   2.957665
    25  H    2.349259   4.228599   4.817794   4.771344   5.576444
    26  H    3.257830   5.625370   6.373973   4.537024   4.734998
    27  H    2.484107   5.010574   6.127236   4.241364   5.080910
    28  H    3.684281   6.120291   6.887650   5.654589   6.190985
    29  H    3.905423   5.516381   5.504358   5.217034   4.989860
    30  H    3.822036   4.954505   4.680220   5.534348   5.631593
    31  H    4.292703   6.093030   6.189228   6.237589   6.407087
                   21         22         23         24         25
    21  H    0.000000
    22  H    1.771129   0.000000
    23  H    1.771828   1.773038   0.000000
    24  H    4.953045   4.449266   4.738409   0.000000
    25  H    6.470424   7.107538   6.877269   4.226233   0.000000
    26  H    6.945511   7.083840   7.594061   3.911595   3.065760
    27  H    6.587865   7.162184   7.491219   4.788491   2.519615
    28  H    7.916289   8.323249   8.545959   5.064559   2.443563
    29  H    7.022243   6.878963   7.040193   2.602075   3.062514
    30  H    6.896327   7.007224   6.715910   3.117350   2.490228
    31  H    8.044201   8.205178   8.138057   4.176635   2.461265
                   26         27         28         29         30
    26  H    0.000000
    27  H    1.774281   0.000000
    28  H    1.766011   1.770841   0.000000
    29  H    2.616251   3.814243   3.176823   0.000000
    30  H    3.809912   4.356023   3.765141   1.773473   0.000000
    31  H    3.065949   3.753749   2.529288   1.775163   1.763969
                   31
    31  H    0.000000
 Stoichiometry    C10H20O
 Framework group  C1[X(C10H20O)]
 Deg. of freedom    87
 Full point group                 C1      NOp   1
 Largest Abelian subgroup         C1      NOp   1
 Largest concise Abelian subgroup C1      NOp   1
                         Standard orientation:                         
 ---------------------------------------------------------------------
 Center     Atomic      Atomic             Coordinates (Angstroms)
 Number     Number       Type             X           Y           Z
 ---------------------------------------------------------------------
      1          6           0       -2.232802    0.016402    0.215391
      2          6           0        0.089558   -1.051098   -0.078535
      3          6           0       -0.136976    1.467305    0.121427
      4          6           0        0.666001    0.316288   -0.518285
      5          6           0       -1.634917    1.370810   -0.205928
      6          6           0       -1.415121   -1.135859   -0.396375
      7          6           0       -3.718095   -0.092827   -0.146420
      8          8           0        0.344309   -1.364251    1.298062
      9          6           0        2.204564    0.490143   -0.373860
     10          6           0        2.977977   -0.614105   -1.112300
     11          6           0        2.721878    0.627351    1.069229
     12          1           0       -2.153950   -0.057952    1.312993
     13          1           0        0.601469   -1.850758   -0.623201
     14          1           0        0.265267    2.429911   -0.220766
     15          1           0       -0.007049    1.465084    1.214218
     16          1           0        0.466444    0.368258   -1.601602
     17          1           0       -1.777592    1.499658   -1.289970
     18          1           0       -2.182997    2.189989    0.278736
     19          1           0       -1.547487   -1.124682   -1.488778
     20          1           0       -1.792780   -2.101839   -0.038700
     21          1           0       -3.861235   -0.027737   -1.232792
     22          1           0       -4.139867   -1.048120    0.187800
     23          1           0       -4.301300    0.712932    0.315474
     24          1           0       -0.028216   -0.652785    1.841283
     25          1           0        2.431210    1.438932   -0.885802
     26          1           0        2.879242   -1.580915   -0.605315
     27          1           0        2.624794   -0.735310   -2.144237
     28          1           0        4.047048   -0.374566   -1.152807
     29          1           0        2.540175   -0.285851    1.642487
     30          1           0        2.248299    1.462862    1.597584
     31          1           0        3.801655    0.820436    1.062831
 ---------------------------------------------------------------------
 Rotational constants (GHZ):      2.0392492      0.6570780      0.6071408
 Standard basis: 6-31+G(d,p) (6D, 7F)
 There are   309 symmetry adapted basis functions of A   symmetry.
 Integral buffers will be    131072 words long.
 Raffenetti 2 integral format.
 Two-electron integral symmetry is turned on.
   309 basis functions,   492 primitive gaussians,   309 cartesian basis functions
    44 alpha electrons       44 beta electrons
       nuclear repulsion energy       693.6379758711 Hartrees.
 NAtoms=   31 NActive=   31 NUniq=   31 SFac= 1.00D+00 NAtFMM=   60 NAOKFM=F Big=F
 ------------------------------------------------------------------------------
 Polarizable Continuum Model (PCM)
 =================================
 Model                : PCM.
 Atomic radii         : UFF (Universal Force Field).
 Polarization charges : Total charges.
 Charge compensation  : None.
 Solution method      : Matrix inversion.
 Cavity type          : Scaled VdW (van der Waals Surface) (Alpha=1.100).
 Cavity algorithm     : GePol (No added spheres)
                        Default sphere list used, NSphG=   31.
                        Lebedev-Laikov grids with approx.  5.0 points / Ang**2.
                        Smoothing algorithm: Karplus/York (Gamma=1.0000).
                        Polarization charges: spherical gaussians, with
                                              point-specific exponents (IZeta= 3).
                        Self-potential: point-specific (ISelfS= 7).
                        Self-field    : sphere-specific E.n sum rule (ISelfD= 2).
 Solvent              : Benzene, Eps=   2.270600 Eps(inf)=   2.253301
 ------------------------------------------------------------------------------
 One-electron integrals computed using PRISM.
 NBasis=   309 RedAO= T  NBF=   309
 NBsUse=   309 1.00D-06 NBFU=   309
 Harris functional with IExCor=  908 diagonalized for initial guess.
 ExpMin= 4.38D-02 ExpMax= 5.48D+03 ExpMxC= 8.25D+02 IAcc=2 IRadAn=         4 AccDes= 0.00D+00
 HarFok:  IExCor=  908 AccDes= 0.00D+00 IRadAn=         4 IDoV= 1
 ScaDFX=  1.000000  1.000000  1.000000  1.000000
 FoFCou: FMM=F IPFlag=           0 FMFlag=      100000 FMFlg1=           0
         NFxFlg=           0 DoJE=T BraDBF=F KetDBF=T FulRan=T
         Omega=  0.000000  0.000000  1.000000  0.000000  0.000000 ICntrl=     500 IOpCl=  0
         NMat0=    1 NMatS0=    1 NMatT0=    0 NMatD0=    1 NMtDS0=    0 NMtDT0=    0
         I1Cent=           4 NGrid=           0.
 Petite list used in FoFCou.
 Initial guess orbital symmetries:
       Occupied  (A) (A) (A) (A) (A) (A) (A) (A) (A) (A) (A) (A)
                 (A) (A) (A) (A) (A) (A) (A) (A) (A) (A) (A) (A)
                 (A) (A) (A) (A) (A) (A) (A) (A) (A) (A) (A) (A)
                 (A) (A) (A) (A) (A) (A) (A) (A)
       Virtual   (A) (A) (A) (A) (A) (A) (A) (A) (A) (A) (A) (A)
                 (A) (A) (A) (A) (A) (A) (A) (A) (A) (A) (A) (A)
                 (A) (A) (A) (A) (A) (A) (A) (A) (A) (A) (A) (A)
                 (A) (A) (A) (A) (A) (A) (A) (A) (A) (A) (A) (A)
                 (A) (A) (A) (A) (A) (A) (A) (A) (A) (A) (A) (A)
                 (A) (A) (A) (A) (A) (A) (A) (A) (A) (A) (A) (A)
                 (A) (A) (A) (A) (A) (A) (A) (A) (A) (A) (A) (A)
                 (A) (A) (A) (A) (A) (A) (A) (A) (A) (A) (A) (A)
                 (A) (A) (A) (A) (A) (A) (A) (A) (A) (A) (A) (A)
                 (A) (A) (A) (A) (A) (A) (A) (A) (A) (A) (A) (A)
                 (A) (A) (A) (A) (A) (A) (A) (A) (A) (A) (A) (A)
                 (A) (A) (A) (A) (A) (A) (A) (A) (A) (A) (A) (A)
                 (A) (A) (A) (A) (A) (A) (A) (A) (A) (A) (A) (A)
                 (A) (A) (A) (A) (A) (A) (A) (A) (A) (A) (A) (A)
                 (A) (A) (A) (A) (A) (A) (A) (A) (A) (A) (A) (A)
                 (A) (A) (A) (A) (A) (A) (A) (A) (A) (A) (A) (A)
                 (A) (A) (A) (A) (A) (A) (A) (A) (A) (A) (A) (A)
                 (A) (A) (A) (A) (A) (A) (A) (A) (A) (A) (A) (A)
                 (A) (A) (A) (A) (A) (A) (A) (A) (A) (A) (A) (A)
                 (A) (A) (A) (A) (A) (A) (A) (A) (A) (A) (A) (A)
                 (A) (A) (A) (A) (A) (A) (A) (A) (A) (A) (A) (A)
                 (A) (A) (A) (A) (A) (A) (A) (A) (A) (A) (A) (A)
                 (A)
 The electronic state of the initial guess is 1-A.
 Requested convergence on RMS density matrix=1.00D-08 within 128 cycles.
 Requested convergence on MAX density matrix=1.00D-06.
 Requested convergence on             energy=1.00D-06.
 No special actions if energy rises.
 Error on total polarization charges =  0.00933
 SCF Done:  E(RmPW1PW91) =  -468.281939788     A.U. after   12 cycles
             Convg  =    0.6108D-08             -V/T =  2.0099
 Range of M.O.s used for correlation:     1   309
 NBasis=   309 NAE=    44 NBE=    44 NFC=     0 NFV=     0
 NROrb=    309 NOA=    44 NOB=    44 NVA=   265 NVB=   265

 **** Warning!!: The largest alpha MO coefficient is  0.79214732D+02

 NEqPCM:  Using equilibrium solvation (IEInf=0, Eps=   2.2706, EpsInf=   2.2533)
          Differentiating once with respect to magnetic field using GIAOs.
          Electric field/nuclear overlap derivatives assumed to be zero.
 FoFCou: FMM=F IPFlag=           0 FMFlag=    10101102 FMFlg1=           0
         NFxFlg=    40000000 DoJE=F BraDBF=F KetDBF=T FulRan=T
         Omega=  0.000000  0.000000  1.000000  0.000000  0.000000 ICntrl=    6100 IOpCl=  0
         NMat0=    1 NMatS0=    1 NMatT0=    0 NMatD0=    1 NMtDS0=    0 NMtDT0=    0
         I1Cent=           7 NGrid=        1919.
 Symmetry not used in FoFCou.
          There are     3 degrees of freedom in the 1st order CPHF.  IDoFFX=0.
      3 vectors produced by pass  0 Test12= 3.89D-13 3.33D-08 XBig12= 3.97D+01 1.45D+00.
 AX will form     3 AO Fock derivatives at one time.
      3 vectors produced by pass  1 Test12= 3.89D-13 3.33D-08 XBig12= 8.26D-02 4.99D-02.
      3 vectors produced by pass  2 Test12= 3.89D-13 3.33D-08 XBig12= 2.20D-04 3.37D-03.
      3 vectors produced by pass  3 Test12= 3.89D-13 3.33D-08 XBig12= 1.36D-06 2.15D-04.
      3 vectors produced by pass  4 Test12= 3.89D-13 3.33D-08 XBig12= 3.93D-09 9.67D-06.
      3 vectors produced by pass  5 Test12= 3.89D-13 3.33D-08 XBig12= 7.24D-12 4.16D-07.
 Inverted reduced A of dimension    18 with in-core refinement.
 Calculating GIAO nuclear magnetic shielding tensors.
 SCF GIAO Magnetic shielding tensor (ppm):
      1  C    Isotropic =   166.7155   Anisotropy =    17.4668
   XX=   167.7471   YX=     5.4707   ZX=     2.0373
   XY=    12.9032   YY=   170.3375   ZY=    -2.1889
   XZ=     6.6179   YZ=    -3.2870   ZZ=   162.0618
   Eigenvalues:   155.7117   166.0747   178.3600
      2  C    Isotropic =   126.4458   Anisotropy =    55.7487
   XX=   114.6575   YX=     8.6273   ZX=    11.0845
   XY=     8.9147   YY=   104.8325   ZY=   -12.7417
   XZ=     8.6334   YZ=   -10.9663   ZZ=   159.8473
   Eigenvalues:    96.0496   119.6762   163.6116
      3  C    Isotropic =   167.8460   Anisotropy =    24.8479
   XX=   184.2158   YX=     4.1796   ZX=    -0.9569
   XY=    -2.7752   YY=   166.5700   ZY=     0.9380
   XZ=    -3.5417   YZ=    -3.5927   ZZ=   152.7522
   Eigenvalues:   152.4768   166.6499   184.4112
      4  C    Isotropic =   148.9379   Anisotropy =    16.5062
   XX=   155.3207   YX=    -3.1456   ZX=     0.6507
   XY=    -0.9903   YY=   138.0183   ZY=    -1.7974
   XZ=    10.0224   YZ=     1.5122   ZZ=   153.4747
   Eigenvalues:   137.7581   149.1136   159.9420
      5  C    Isotropic =   159.4627   Anisotropy =    19.1394
   XX=   163.9531   YX=     6.3564   ZX=     3.2037
   XY=    12.4033   YY=   161.3491   ZY=    -4.3911
   XZ=    -1.9201   YZ=    -1.2881   ZZ=   153.0859
   Eigenvalues:   150.5249   155.6409   172.2223
      6  C    Isotropic =   151.4578   Anisotropy =    24.5906
   XX=   165.3697   YX=    -3.4281   ZX=    11.0960
   XY=    -8.7447   YY=   141.2111   ZY=    -2.6392
   XZ=    -2.5701   YZ=    -0.8821   ZZ=   147.7927
   Eigenvalues:   139.6923   146.8296   167.8515
      7  C    Isotropic =   172.8529   Anisotropy =    38.3285
   XX=   197.3477   YX=     2.8560   ZX=     2.5616
   XY=     2.9488   YY=   162.9807   ZY=    -0.5100
   XZ=     8.8788   YZ=     0.9529   ZZ=   158.2302
   Eigenvalues:   157.4040   162.7495   198.4052
      8  O    Isotropic =   288.0812   Anisotropy =    18.6051
   XX=   292.9975   YX=     0.1581   ZX=     9.8930
   XY=    -2.3813   YY=   298.3757   ZY=    -7.2016
   XZ=     5.2221   YZ=    -3.0200   ZZ=   272.8703
   Eigenvalues:   269.6382   294.1208   300.4846
      9  C    Isotropic =   160.1243   Anisotropy =    17.7696
   XX=   171.7080   YX=    -0.4066   ZX=    -4.7351
   XY=     0.9588   YY=   156.9235   ZY=     0.1338
   XZ=     0.1747   YZ=    -0.4178   ZZ=   151.7414
   Eigenvalues:   151.4821   156.9201   171.9707
     10  C    Isotropic =   174.2213   Anisotropy =    33.4765
   XX=   172.1959   YX=   -11.7489   ZX=    -6.7683
   XY=   -12.0900   YY=   171.1391   ZY=    17.9216
   XZ=    -1.8449   YZ=    13.7377   ZZ=   179.3288
   Eigenvalues:   155.4806   170.6443   196.5389
     11  C    Isotropic =   177.8727   Anisotropy =    24.5784
   XX=   173.9716   YX=     2.3181   ZX=     9.4370
   XY=     2.0785   YY=   168.3287   ZY=     0.4892
   XZ=     4.2427   YZ=     6.1029   ZZ=   191.3177
   Eigenvalues:   167.5231   171.8366   194.2583
     12  H    Isotropic =    30.0213   Anisotropy =     5.4095
   XX=    30.9340   YX=    -0.2751   ZX=    -0.8947
   XY=    -0.3821   YY=    25.7228   ZY=    -0.8635
   XZ=    -0.4610   YZ=    -0.5553   ZZ=    33.4071
   Eigenvalues:    25.6290    30.8072    33.6276
     13  H    Isotropic =    27.4116   Anisotropy =     4.5855
   XX=    28.5544   YX=    -0.1893   ZX=    -0.8339
   XY=    -1.0948   YY=    27.2669   ZY=     1.5264
   XZ=    -2.1690   YZ=     3.3291   ZZ=    26.4134
   Eigenvalues:    24.2358    27.5303    30.4686
     14  H    Isotropic =    30.3160   Anisotropy =     8.8919
   XX=    31.1626   YX=     2.4715   ZX=    -0.6477
   XY=     1.7543   YY=    35.0589   ZY=    -1.5578
   XZ=     0.0854   YZ=    -1.9631   ZZ=    24.7264
   Eigenvalues:    24.4340    30.2700    36.2439
     15  H    Isotropic =    30.0150   Anisotropy =     5.3669
   XX=    30.6386   YX=    -0.8092   ZX=     1.8705
   XY=    -0.0996   YY=    27.9110   ZY=     3.1101
   XZ=     1.1662   YZ=     2.7949   ZZ=    31.4954
   Eigenvalues:    25.9608    30.4912    33.5930
     16  H    Isotropic =    30.3148   Anisotropy =     4.8636
   XX=    31.5172   YX=    -0.2585   ZX=     0.0261
   XY=    -0.4343   YY=    26.0266   ZY=    -0.9352
   XZ=    -0.1870   YZ=    -1.2335   ZZ=    33.4006
   Eigenvalues:    25.8483    31.5389    33.5572
     17  H    Isotropic =    30.5899   Anisotropy =     7.0637
   XX=    30.8122   YX=    -0.0934   ZX=     2.3728
   XY=    -0.4850   YY=    28.8967   ZY=    -3.7726
   XZ=     1.7556   YZ=    -3.6057   ZZ=    32.0608
   Eigenvalues:    26.2700    30.2007    35.2990
     18  H    Isotropic =    29.9113   Anisotropy =     9.0659
   XX=    31.2459   YX=    -2.7803   ZX=    -1.2823
   XY=    -2.9692   YY=    33.2157   ZY=     2.5911
   XZ=    -0.8263   YZ=     2.5362   ZZ=    25.2723
   Eigenvalues:    24.5099    29.2688    35.9552
     19  H    Isotropic =    30.5376   Anisotropy =     6.6426
   XX=    30.7253   YX=     0.4735   ZX=     2.0498
   XY=     0.4914   YY=    28.0666   ZY=     2.9106
   XZ=     1.4250   YZ=     2.9583   ZZ=    32.8209
   Eigenvalues:    26.6406    30.0061    34.9660
     20  H    Isotropic =    29.8175   Anisotropy =     7.7680
   XX=    29.9965   YX=     1.9033   ZX=    -0.3710
   XY=     1.2945   YY=    34.4655   ZY=    -0.4061
   XZ=     0.6435   YZ=    -0.5595   ZZ=    24.9904
   Eigenvalues:    24.9560    29.5003    34.9962
     21  H    Isotropic =    30.9979   Anisotropy =     8.6231
   XX=    32.1845   YX=     0.0907   ZX=     4.1974
   XY=     0.2385   YY=    27.2054   ZY=    -0.0600
   XZ=     3.3758   YZ=    -0.2067   ZZ=    33.6037
   Eigenvalues:    27.1813    29.0657    36.7466
     22  H    Isotropic =    30.6427   Anisotropy =    10.7047
   XX=    33.7002   YX=     5.1250   ZX=    -1.4961
   XY=     4.0234   YY=    31.6833   ZY=    -2.1214
   XZ=    -1.0310   YZ=    -1.5185   ZZ=    26.5446
   Eigenvalues:    25.9573    28.1916    37.7792
     23  H    Isotropic =    30.5263   Anisotropy =    10.5448
   XX=    35.0230   YX=    -4.2496   ZX=    -2.5958
   XY=    -2.9271   YY=    29.4072   ZY=     2.2841
   XZ=    -1.7992   YZ=     1.7004   ZZ=    27.1487
   Eigenvalues:    25.9863    28.0365    37.5561
     24  H    Isotropic =    30.5355   Anisotropy =    12.0639
   XX=    26.0736   YX=    -4.2721   ZX=    -2.4571
   XY=    -3.9837   YY=    30.6911   ZY=     3.8749
   XZ=    -2.2500   YZ=     3.8421   ZZ=    34.8417
   Eigenvalues:    23.6520    29.3763    38.5781
     25  H    Isotropic =    29.9495   Anisotropy =     7.7153
   XX=    29.3776   YX=     1.8907   ZX=    -1.7416
   XY=     1.5185   YY=    31.9376   ZY=    -3.5110
   XZ=    -1.7434   YZ=    -3.4390   ZZ=    28.5333
   Eigenvalues:    26.2296    28.5259    35.0930
     26  H    Isotropic =    30.3233   Anisotropy =     6.8615
   XX=    29.7446   YX=    -2.0058   ZX=    -1.1306
   XY=    -1.5429   YY=    34.2620   ZY=    -1.1490
   XZ=    -1.4743   YZ=    -0.6127   ZZ=    26.9631
   Eigenvalues:    26.1661    29.9061    34.8976
     27  H    Isotropic =    30.7293   Anisotropy =     9.8028
   XX=    28.8480   YX=    -1.2274   ZX=    -1.2571
   XY=    -0.3886   YY=    27.1664   ZY=     3.4759
   XZ=    -0.5410   YZ=     2.6661   ZZ=    36.1737
   Eigenvalues:    26.1208    28.8028    37.2645
     28  H    Isotropic =    30.5063   Anisotropy =    10.6497
   XX=    36.8055   YX=     0.0753   ZX=    -2.5881
   XY=    -0.8365   YY=    26.8985   ZY=     0.9403
   XZ=    -2.8491   YZ=     1.3279   ZZ=    27.8148
   Eigenvalues:    25.9631    27.9497    37.6061
     29  H    Isotropic =    30.0885   Anisotropy =     6.1739
   XX=    29.7338   YX=     1.6874   ZX=     1.5360
   XY=     2.3359   YY=    29.4941   ZY=    -3.4910
   XZ=     1.6384   YZ=    -4.2322   ZZ=    31.0377
   Eigenvalues:    24.9545    31.1066    34.2045
     30  H    Isotropic =    30.5455   Anisotropy =     7.9350
   XX=    30.2503   YX=    -0.6567   ZX=     1.8290
   XY=    -1.2510   YY=    30.1651   ZY=     4.5418
   XZ=     0.3566   YZ=     5.6776   ZZ=    31.2210
   Eigenvalues:    25.1493    30.6516    35.8355
     31  H    Isotropic =    30.9069   Anisotropy =    10.9393
   XX=    36.5822   YX=     2.4227   ZX=     2.1815
   XY=     2.7856   YY=    27.1623   ZY=     1.4959
   XZ=     3.1305   YZ=     1.4914   ZZ=    28.9763
   Eigenvalues:    26.1852    28.3358    38.1998
 End of Minotr Frequency-dependent properties file   721 does not exist.
 End of Minotr Frequency-dependent properties file   722 does not exist.

 **********************************************************************

            Population analysis using the SCF density.

 **********************************************************************

 Orbital symmetries:
       Occupied  (A) (A) (A) (A) (A) (A) (A) (A) (A) (A) (A) (A)
                 (A) (A) (A) (A) (A) (A) (A) (A) (A) (A) (A) (A)
                 (A) (A) (A) (A) (A) (A) (A) (A) (A) (A) (A) (A)
                 (A) (A) (A) (A) (A) (A) (A) (A)
       Virtual   (A) (A) (A) (A) (A) (A) (A) (A) (A) (A) (A) (A)
                 (A) (A) (A) (A) (A) (A) (A) (A) (A) (A) (A) (A)
                 (A) (A) (A) (A) (A) (A) (A) (A) (A) (A) (A) (A)
                 (A) (A) (A) (A) (A) (A) (A) (A) (A) (A) (A) (A)
                 (A) (A) (A) (A) (A) (A) (A) (A) (A) (A) (A) (A)
                 (A) (A) (A) (A) (A) (A) (A) (A) (A) (A) (A) (A)
                 (A) (A) (A) (A) (A) (A) (A) (A) (A) (A) (A) (A)
                 (A) (A) (A) (A) (A) (A) (A) (A) (A) (A) (A) (A)
                 (A) (A) (A) (A) (A) (A) (A) (A) (A) (A) (A) (A)
                 (A) (A) (A) (A) (A) (A) (A) (A) (A) (A) (A) (A)
                 (A) (A) (A) (A) (A) (A) (A) (A) (A) (A) (A) (A)
                 (A) (A) (A) (A) (A) (A) (A) (A) (A) (A) (A) (A)
                 (A) (A) (A) (A) (A) (A) (A) (A) (A) (A) (A) (A)
                 (A) (A) (A) (A) (A) (A) (A) (A) (A) (A) (A) (A)
                 (A) (A) (A) (A) (A) (A) (A) (A) (A) (A) (A) (A)
                 (A) (A) (A) (A) (A) (A) (A) (A) (A) (A) (A) (A)
                 (A) (A) (A) (A) (A) (A) (A) (A) (A) (A) (A) (A)
                 (A) (A) (A) (A) (A) (A) (A) (A) (A) (A) (A) (A)
                 (A) (A) (A) (A) (A) (A) (A) (A) (A) (A) (A) (A)
                 (A) (A) (A) (A) (A) (A) (A) (A) (A) (A) (A) (A)
                 (A) (A) (A) (A) (A) (A) (A) (A) (A) (A) (A) (A)
                 (A) (A) (A) (A) (A) (A) (A) (A) (A) (A) (A) (A)
                 (A)
 The electronic state is 1-A.
 Alpha  occ. eigenvalues --  -19.24365 -10.29373 -10.25374 -10.25096 -10.24973
 Alpha  occ. eigenvalues --  -10.24562 -10.24332 -10.23976 -10.23582 -10.23100
 Alpha  occ. eigenvalues --  -10.22613  -1.04862  -0.86064  -0.82249  -0.76926
 Alpha  occ. eigenvalues --   -0.75788  -0.69852  -0.69557  -0.63775  -0.62268
 Alpha  occ. eigenvalues --   -0.57937  -0.56579  -0.50241  -0.48613  -0.48299
 Alpha  occ. eigenvalues --   -0.45861  -0.45156  -0.43162  -0.42672  -0.42120
 Alpha  occ. eigenvalues --   -0.41186  -0.39928  -0.38752  -0.38503  -0.37066
 Alpha  occ. eigenvalues --   -0.36055  -0.35681  -0.35328  -0.33783  -0.33041
 Alpha  occ. eigenvalues --   -0.32710  -0.31703  -0.29983  -0.27340
 Alpha virt. eigenvalues --    0.00523   0.01539   0.01964   0.02723   0.03625
 Alpha virt. eigenvalues --    0.04214   0.04485   0.04945   0.05908   0.06533
 Alpha virt. eigenvalues --    0.06996   0.07547   0.08056   0.08538   0.09619
 Alpha virt. eigenvalues --    0.09679   0.09982   0.10319   0.10927   0.11103
 Alpha virt. eigenvalues --    0.11669   0.13084   0.13402   0.13986   0.14343
 Alpha virt. eigenvalues --    0.14800   0.15620   0.16493   0.17349   0.17913
 Alpha virt. eigenvalues --    0.18050   0.18867   0.19072   0.19720   0.20079
 Alpha virt. eigenvalues --    0.20323   0.21103   0.21369   0.21682   0.22129
 Alpha virt. eigenvalues --    0.22397   0.23030   0.23364   0.23750   0.24709
 Alpha virt. eigenvalues --    0.25106   0.25723   0.25820   0.27334   0.27744
 Alpha virt. eigenvalues --    0.28044   0.28522   0.28708   0.29092   0.29702
 Alpha virt. eigenvalues --    0.31088   0.31646   0.32311   0.32589   0.32929
 Alpha virt. eigenvalues --    0.33523   0.34342   0.35371   0.36151   0.36878
 Alpha virt. eigenvalues --    0.38072   0.38686   0.39808   0.40001   0.41510
 Alpha virt. eigenvalues --    0.42904   0.43725   0.45658   0.49776   0.53070
 Alpha virt. eigenvalues --    0.61656   0.63587   0.66173   0.66464   0.67405
 Alpha virt. eigenvalues --    0.68198   0.69289   0.69838   0.71245   0.73257
 Alpha virt. eigenvalues --    0.73430   0.74225   0.75651   0.75995   0.76428
 Alpha virt. eigenvalues --    0.77506   0.78688   0.80080   0.82422   0.85038
 Alpha virt. eigenvalues --    0.87536   0.88671   0.89360   0.89937   0.91084
 Alpha virt. eigenvalues --    0.94286   0.97290   0.99117   0.99861   1.00352
 Alpha virt. eigenvalues --    1.01367   1.02072   1.02543   1.03636   1.04547
 Alpha virt. eigenvalues --    1.04983   1.05621   1.08777   1.09761   1.10087
 Alpha virt. eigenvalues --    1.12418   1.13598   1.14320   1.15992   1.17107
 Alpha virt. eigenvalues --    1.17714   1.18315   1.18804   1.20522   1.21832
 Alpha virt. eigenvalues --    1.23382   1.26164   1.26954   1.31474   1.35559
 Alpha virt. eigenvalues --    1.36202   1.38762   1.40924   1.42858   1.46138
 Alpha virt. eigenvalues --    1.48633   1.50269   1.51437   1.54331   1.57550
 Alpha virt. eigenvalues --    1.58617   1.59391   1.62899   1.64159   1.67961
 Alpha virt. eigenvalues --    1.68654   1.72078   1.75036   1.76096   1.80222
 Alpha virt. eigenvalues --    1.82050   1.83422   1.85245   1.86520   1.88773
 Alpha virt. eigenvalues --    1.89475   1.90164   1.91924   1.94437   1.94575
 Alpha virt. eigenvalues --    1.95762   1.97342   1.98624   2.00692   2.02264
 Alpha virt. eigenvalues --    2.04144   2.05039   2.05823   2.06557   2.08543
 Alpha virt. eigenvalues --    2.10053   2.11582   2.12623   2.14659   2.14905
 Alpha virt. eigenvalues --    2.15742   2.16488   2.17963   2.19358   2.19782
 Alpha virt. eigenvalues --    2.20796   2.21042   2.22853   2.26196   2.30430
 Alpha virt. eigenvalues --    2.33247   2.33551   2.33807   2.36934   2.38141
 Alpha virt. eigenvalues --    2.38582   2.39298   2.40528   2.41897   2.44940
 Alpha virt. eigenvalues --    2.46914   2.49311   2.52126   2.53807   2.58007
 Alpha virt. eigenvalues --    2.59964   2.60465   2.63875   2.64294   2.67124
 Alpha virt. eigenvalues --    2.68197   2.68798   2.71439   2.71774   2.72631
 Alpha virt. eigenvalues --    2.74184   2.75003   2.76253   2.77562   2.78275
 Alpha virt. eigenvalues --    2.79229   2.80380   2.82997   2.83946   2.85655
 Alpha virt. eigenvalues --    2.87660   2.88493   2.90868   2.91986   2.93006
 Alpha virt. eigenvalues --    2.93745   2.95597   2.96191   2.97057   3.00191
 Alpha virt. eigenvalues --    3.01102   3.01751   3.07404   3.11540   3.29223
 Alpha virt. eigenvalues --    3.30497   3.31535   3.34622   3.37423   3.38343
 Alpha virt. eigenvalues --    3.40891   3.41757   3.47785   3.49162   3.49795
 Alpha virt. eigenvalues --    3.51112   3.53428   3.54026   3.54707   3.56603
 Alpha virt. eigenvalues --    3.58939   3.59393   3.62458   3.64133   4.35865
 Alpha virt. eigenvalues --    4.40877   4.44634   4.53409   4.57771   4.60367
 Alpha virt. eigenvalues --    4.63555   4.75713   4.84403   4.87201   4.95469
          Condensed to atoms (all electrons):
              1          2          3          4          5          6
     1  C    7.342232   0.095186  -0.004039   0.247942  -0.200043  -0.393878
     2  C    0.095186   6.673404  -0.099426  -0.552462  -0.005552  -0.416661
     3  C   -0.004039  -0.099426   6.003509  -0.509961   0.062291   0.079013
     4  C    0.247942  -0.552462  -0.509961   8.350269  -0.327182  -0.215809
     5  C   -0.200043  -0.005552   0.062291  -0.327182   6.000401   0.015837
     6  C   -0.393878  -0.416661   0.079013  -0.215809   0.015837   6.688452
     7  C   -1.077325  -0.410750  -0.113429   0.025205   0.183771   0.264025
     8  O   -0.021065   0.256261  -0.006576  -0.142056  -0.034694  -0.051146
     9  C   -0.103136   0.290528   0.568708  -1.842657   0.076176   0.093788
    10  C    0.026966  -0.007115  -0.116652   0.354293  -0.060261  -0.056033
    11  C    0.029070  -0.154397  -0.126086   0.425543  -0.052996  -0.087271
    12  H    0.249423  -0.029800  -0.020273  -0.004594   0.000211  -0.018478
    13  H    0.035742   0.252027  -0.005149   0.094995  -0.005804   0.011309
    14  H    0.022443   0.038089   0.364904  -0.100826   0.007506  -0.002601
    15  H    0.003675  -0.004067   0.376187  -0.003035  -0.042968  -0.028492
    16  H    0.007519  -0.030210  -0.023783   0.352493  -0.032770  -0.045904
    17  H   -0.081024   0.007671  -0.079992   0.023109   0.447246  -0.015823
    18  H   -0.042188  -0.004645  -0.030475   0.034230   0.348656   0.040143
    19  H   -0.070135  -0.057786   0.010283   0.001936  -0.014921   0.388613
    20  H   -0.038150  -0.020026  -0.010187   0.026265   0.039541   0.358086
    21  H   -0.133511  -0.006529   0.001282   0.002020   0.003774   0.003990
    22  H   -0.113798   0.000986  -0.012299   0.002362   0.028669  -0.002256
    23  H   -0.134574  -0.013297  -0.003355   0.002595   0.000171   0.035235
    24  H    0.049770   0.014531  -0.033585   0.081232  -0.005836  -0.087864
    25  H    0.000368   0.019613  -0.042486   0.006052   0.011167  -0.010691
    26  H    0.000179   0.008183  -0.006370   0.010103  -0.000234  -0.005775
    27  H   -0.000329   0.002221   0.004543  -0.021491  -0.003563   0.002555
    28  H    0.000012  -0.000372  -0.006251   0.048500   0.000615   0.000676
    29  H   -0.000704   0.006224  -0.016083   0.036677   0.004262  -0.003744
    30  H   -0.001808  -0.006583   0.023165  -0.026042  -0.000417   0.002970
    31  H    0.000021  -0.003117  -0.005746   0.057177   0.000872   0.001527
              7          8          9         10         11         12
     1  C   -1.077325  -0.021065  -0.103136   0.026966   0.029070   0.249423
     2  C   -0.410750   0.256261   0.290528  -0.007115  -0.154397  -0.029800
     3  C   -0.113429  -0.006576   0.568708  -0.116652  -0.126086  -0.020273
     4  C    0.025205  -0.142056  -1.842657   0.354293   0.425543  -0.004594
     5  C    0.183771  -0.034694   0.076176  -0.060261  -0.052996   0.000211
     6  C    0.264025  -0.051146   0.093788  -0.056033  -0.087271  -0.018478
     7  C    6.414051   0.042745   0.000884  -0.006165  -0.006000   0.075556
     8  O    0.042745   8.202399  -0.002831   0.002787   0.033289   0.007269
     9  C    0.000884  -0.002831   8.146024  -0.591345  -0.591523   0.006428
    10  C   -0.006165   0.002787  -0.591345   5.676553   0.075667   0.000508
    11  C   -0.006000   0.033289  -0.591523   0.075667   5.768137  -0.000241
    12  H    0.075556   0.007269   0.006428   0.000508  -0.000241   0.583189
    13  H    0.010894  -0.058495  -0.091223   0.020443   0.009872  -0.000099
    14  H   -0.000350  -0.000315   0.018976  -0.002068  -0.014666   0.000005
    15  H    0.000734   0.002531  -0.021852   0.002082   0.017687   0.002512
    16  H    0.002106   0.011000   0.024305  -0.011111   0.019918   0.000068
    17  H    0.004101   0.000454  -0.000933   0.001518   0.000529   0.005101
    18  H   -0.014560  -0.000038  -0.003496   0.000341  -0.000681  -0.004503
    19  H    0.026467   0.010370   0.011498   0.001859  -0.000520   0.005152
    20  H   -0.019743  -0.007007   0.000308  -0.001255   0.000287  -0.004226
    21  H    0.477709   0.000103   0.000183   0.000074  -0.000009   0.004920
    22  H    0.457272  -0.000174  -0.000320  -0.000031   0.000030  -0.003979
    23  H    0.473002   0.000051  -0.000471  -0.000017   0.000035  -0.003899
    24  H    0.010271   0.244377  -0.055963   0.010107   0.022761  -0.000188
    25  H   -0.000042  -0.000787   0.292041   0.004936  -0.009145   0.000002
    26  H   -0.000094   0.001603  -0.143423   0.480694   0.004784   0.000000
    27  H   -0.000137   0.000405  -0.053098   0.420895   0.005393   0.000000
    28  H    0.000009  -0.000006  -0.135671   0.448704   0.003847   0.000000
    29  H    0.000020  -0.008965  -0.124718  -0.005510   0.465387   0.000004
    30  H   -0.000149  -0.001998  -0.031258  -0.006203   0.406783   0.000006
    31  H    0.000028   0.000789  -0.131325   0.011913   0.424485   0.000000
             13         14         15         16         17         18
     1  C    0.035742   0.022443   0.003675   0.007519  -0.081024  -0.042188
     2  C    0.252027   0.038089  -0.004067  -0.030210   0.007671  -0.004645
     3  C   -0.005149   0.364904   0.376187  -0.023783  -0.079992  -0.030475
     4  C    0.094995  -0.100826  -0.003035   0.352493   0.023109   0.034230
     5  C   -0.005804   0.007506  -0.042968  -0.032770   0.447246   0.348656
     6  C    0.011309  -0.002601  -0.028492  -0.045904  -0.015823   0.040143
     7  C    0.010894  -0.000350   0.000734   0.002106   0.004101  -0.014560
     8  O   -0.058495  -0.000315   0.002531   0.011000   0.000454  -0.000038
     9  C   -0.091223   0.018976  -0.021852   0.024305  -0.000933  -0.003496
    10  C    0.020443  -0.002068   0.002082  -0.011111   0.001518   0.000341
    11  C    0.009872  -0.014666   0.017687   0.019918   0.000529  -0.000681
    12  H   -0.000099   0.000005   0.002512   0.000068   0.005101  -0.004503
    13  H    0.583824  -0.000114  -0.000100  -0.003767  -0.000072   0.000013
    14  H   -0.000114   0.540224  -0.029459  -0.004337  -0.003772  -0.002626
    15  H   -0.000100  -0.029459   0.566093   0.004931   0.004655  -0.004201
    16  H   -0.003767  -0.004337   0.004931   0.567855   0.003006   0.000042
    17  H   -0.000072  -0.003772   0.004655   0.003006   0.544733  -0.029280
    18  H    0.000013  -0.002626  -0.004201   0.000042  -0.029280   0.551914
    19  H   -0.003210  -0.000010   0.000049   0.000729   0.002935  -0.000035
    20  H   -0.004749   0.000010  -0.000016   0.000068  -0.000027  -0.000131
    21  H   -0.000003   0.000000   0.000001   0.000001   0.003234  -0.000178
    22  H   -0.000003   0.000002   0.000001   0.000001  -0.000010   0.000009
    23  H    0.000002  -0.000004   0.000000   0.000000  -0.000252   0.002839
    24  H    0.007704  -0.000167   0.000967  -0.000132  -0.000012   0.000052
    25  H    0.000024   0.003756  -0.000019  -0.006604   0.000019  -0.000007
    26  H   -0.000720   0.000001   0.000008  -0.000034   0.000000   0.000000
    27  H   -0.000234  -0.000003   0.000001   0.003524   0.000001   0.000000
    28  H    0.000038  -0.000004   0.000000   0.000036   0.000000   0.000000
    29  H   -0.000065   0.000099  -0.000049  -0.000121   0.000000   0.000000
    30  H    0.000006   0.000240  -0.000370  -0.000035  -0.000002   0.000007
    31  H    0.000000  -0.000023   0.000001  -0.000102   0.000000   0.000000
             19         20         21         22         23         24
     1  C   -0.070135  -0.038150  -0.133511  -0.113798  -0.134574   0.049770
     2  C   -0.057786  -0.020026  -0.006529   0.000986  -0.013297   0.014531
     3  C    0.010283  -0.010187   0.001282  -0.012299  -0.003355  -0.033585
     4  C    0.001936   0.026265   0.002020   0.002362   0.002595   0.081232
     5  C   -0.014921   0.039541   0.003774   0.028669   0.000171  -0.005836
     6  C    0.388613   0.358086   0.003990  -0.002256   0.035235  -0.087864
     7  C    0.026467  -0.019743   0.477709   0.457272   0.473002   0.010271
     8  O    0.010370  -0.007007   0.000103  -0.000174   0.000051   0.244377
     9  C    0.011498   0.000308   0.000183  -0.000320  -0.000471  -0.055963
    10  C    0.001859  -0.001255   0.000074  -0.000031  -0.000017   0.010107
    11  C   -0.000520   0.000287  -0.000009   0.000030   0.000035   0.022761
    12  H    0.005152  -0.004226   0.004920  -0.003979  -0.003899  -0.000188
    13  H   -0.003210  -0.004749  -0.000003  -0.000003   0.000002   0.007704
    14  H   -0.000010   0.000010   0.000000   0.000002  -0.000004  -0.000167
    15  H    0.000049  -0.000016   0.000001   0.000001   0.000000   0.000967
    16  H    0.000729   0.000068   0.000001   0.000001   0.000000  -0.000132
    17  H    0.002935  -0.000027   0.003234  -0.000010  -0.000252  -0.000012
    18  H   -0.000035  -0.000131  -0.000178   0.000009   0.002839   0.000052
    19  H    0.547236  -0.027105   0.003276  -0.000300   0.000002  -0.000144
    20  H   -0.027105   0.532634  -0.000122   0.002622  -0.000012  -0.000463
    21  H    0.003276  -0.000122   0.532745  -0.027860  -0.027976   0.000000
    22  H   -0.000300   0.002622  -0.027860   0.528131  -0.025464   0.000001
    23  H    0.000002  -0.000012  -0.027976  -0.025464   0.531737   0.000008
    24  H   -0.000144  -0.000463   0.000000   0.000001   0.000008   0.390465
    25  H    0.000007   0.000002   0.000000   0.000000   0.000000   0.000007
    26  H    0.000005   0.000004   0.000000   0.000000   0.000000  -0.000021
    27  H   -0.000003   0.000001   0.000000   0.000000   0.000000  -0.000006
    28  H    0.000000   0.000000   0.000000   0.000000   0.000000   0.000002
    29  H    0.000000   0.000003   0.000000   0.000000   0.000000  -0.000691
    30  H    0.000000   0.000000   0.000000   0.000000   0.000000   0.000066
    31  H    0.000000   0.000000   0.000000   0.000000   0.000000   0.000002
             25         26         27         28         29         30
     1  C    0.000368   0.000179  -0.000329   0.000012  -0.000704  -0.001808
     2  C    0.019613   0.008183   0.002221  -0.000372   0.006224  -0.006583
     3  C   -0.042486  -0.006370   0.004543  -0.006251  -0.016083   0.023165
     4  C    0.006052   0.010103  -0.021491   0.048500   0.036677  -0.026042
     5  C    0.011167  -0.000234  -0.003563   0.000615   0.004262  -0.000417
     6  C   -0.010691  -0.005775   0.002555   0.000676  -0.003744   0.002970
     7  C   -0.000042  -0.000094  -0.000137   0.000009   0.000020  -0.000149
     8  O   -0.000787   0.001603   0.000405  -0.000006  -0.008965  -0.001998
     9  C    0.292041  -0.143423  -0.053098  -0.135671  -0.124718  -0.031258
    10  C    0.004936   0.480694   0.420895   0.448704  -0.005510  -0.006203
    11  C   -0.009145   0.004784   0.005393   0.003847   0.465387   0.406783
    12  H    0.000002   0.000000   0.000000   0.000000   0.000004   0.000006
    13  H    0.000024  -0.000720  -0.000234   0.000038  -0.000065   0.000006
    14  H    0.003756   0.000001  -0.000003  -0.000004   0.000099   0.000240
    15  H   -0.000019   0.000008   0.000001   0.000000  -0.000049  -0.000370
    16  H   -0.006604  -0.000034   0.003524   0.000036  -0.000121  -0.000035
    17  H    0.000019   0.000000   0.000001   0.000000   0.000000  -0.000002
    18  H   -0.000007   0.000000   0.000000   0.000000   0.000000   0.000007
    19  H    0.000007   0.000005  -0.000003   0.000000   0.000000   0.000000
    20  H    0.000002   0.000004   0.000001   0.000000   0.000003   0.000000
    21  H    0.000000   0.000000   0.000000   0.000000   0.000000   0.000000
    22  H    0.000000   0.000000   0.000000   0.000000   0.000000   0.000000
    23  H    0.000000   0.000000   0.000000   0.000000   0.000000   0.000000
    24  H    0.000007  -0.000021  -0.000006   0.000002  -0.000691   0.000066
    25  H    0.586202   0.004977  -0.003533  -0.004337   0.004944  -0.003565
    26  H    0.004977   0.526381  -0.028544  -0.026854   0.003416   0.000023
    27  H   -0.003533  -0.028544   0.536704  -0.025497  -0.000024  -0.000138
    28  H   -0.004337  -0.026854  -0.025497   0.528709  -0.000098   0.000023
    29  H    0.004944   0.003416  -0.000024  -0.000098   0.501701  -0.027173
    30  H   -0.003565   0.000023  -0.000138   0.000023  -0.027173   0.544005
    31  H   -0.004134  -0.000163   0.000071   0.002571  -0.026531  -0.027047
             31
     1  C    0.000021
     2  C   -0.003117
     3  C   -0.005746
     4  C    0.057177
     5  C    0.000872
     6  C    0.001527
     7  C    0.000028
     8  O    0.000789
     9  C   -0.131325
    10  C    0.011913
    11  C    0.424485
    12  H    0.000000
    13  H    0.000000
    14  H   -0.000023
    15  H    0.000001
    16  H   -0.000102
    17  H    0.000000
    18  H    0.000000
    19  H    0.000000
    20  H    0.000000
    21  H    0.000000
    22  H    0.000000
    23  H    0.000000
    24  H    0.000002
    25  H   -0.004134
    26  H   -0.000163
    27  H    0.000071
    28  H    0.002571
    29  H   -0.026531
    30  H   -0.027047
    31  H    0.540167
 Mulliken atomic charges:
              1
     1  C    0.305158
     2  C    0.157870
     3  C   -0.221682
     4  C   -0.436883
     5  C   -0.443925
     6  C   -0.543796
     7  C   -0.820106
     8  O   -0.480281
     9  C    0.395395
    10  C   -0.676575
    11  C   -0.669973
    12  H    0.149927
    13  H    0.146913
    14  H    0.165089
    15  H    0.152515
    16  H    0.161310
    17  H    0.162888
    18  H    0.158799
    19  H    0.163756
    20  H    0.173390
    21  H    0.162876
    22  H    0.166408
    23  H    0.163646
    24  H    0.352751
    25  H    0.151235
    26  H    0.171869
    27  H    0.160284
    28  H    0.165348
    29  H    0.191737
    30  H    0.155492
    31  H    0.158565
 Sum of Mulliken atomic charges =   0.00000
 Mulliken charges with hydrogens summed into heavy atoms:
              1
     1  C    0.455085
     2  C    0.304783
     3  C    0.095922
     4  C   -0.275573
     5  C   -0.122238
     6  C   -0.206650
     7  C   -0.327176
     8  O   -0.127529
     9  C    0.546630
    10  C   -0.179074
    11  C   -0.164179
 Sum of Mulliken charges with hydrogens summed into heavy atoms =   0.00000
 Electronic spatial extent (au):  <R**2>=           2161.0514
 Charge=              0.0000 electrons
 Dipole moment (field-independent basis, Debye):
    X=             -0.9690    Y=              1.6322    Z=             -0.8511  Tot=              2.0802
 Quadrupole moment (field-independent basis, Debye-Ang):
   XX=            -72.5546   YY=            -74.9244   ZZ=            -71.3174
   XY=              1.1575   XZ=             -2.0503   YZ=              3.2443
 Traceless Quadrupole moment (field-independent basis, Debye-Ang):
   XX=              0.3775   YY=             -1.9922   ZZ=              1.6147
   XY=              1.1575   XZ=             -2.0503   YZ=              3.2443
 Octapole moment (field-independent basis, Debye-Ang**2):
  XXX=              2.7837  YYY=              0.6994  ZZZ=              6.6227  XYY=             -2.2698
  XXY=             -0.3340  XXZ=              1.4157  XZZ=             -4.3624  YZZ=              2.9623
  YYZ=             -4.8699  XYZ=              0.6127
 Hexadecapole moment (field-independent basis, Debye-Ang**3):
 XXXX=          -2116.6931 YYYY=           -540.9850 ZZZZ=           -348.9888 XXXY=              4.9695
 XXXZ=            -10.8129 YYYX=              1.6064 YYYZ=              5.2845 ZZZX=             -1.7425
 ZZZY=             -2.5207 XXYY=           -440.1179 XXZZ=           -420.7847 YYZZ=           -161.8146
 XXYZ=             -4.1806 YYXZ=             -6.2765 ZZXY=              1.1575
 N-N= 6.936379758711D+02 E-N=-2.472496196671D+03  KE= 4.636956946171D+02
 1\1\GINC-COMPUTE-10-6\SP\RmPW1PW91\6-31+G(d,p)\C10H20O1\ASAROTTI.IQUIR
 \19-Sep-2024\0\\# mPW1PW91/6-31+G** nmr scrf=(pcm,solvent=benzene)\\co
 mment\\0,1\C,0,-2.232802,0.016402,0.215391\C,0,0.089558,-1.051098,-0.0
 78535\C,0,-0.136976,1.467305,0.121427\C,0,0.666001,0.316288,-0.518285\
 C,0,-1.634917,1.37081,-0.205928\C,0,-1.415121,-1.135859,-0.396375\C,0,
 -3.718095,-0.092827,-0.14642\O,0,0.344309,-1.364251,1.298062\C,0,2.204
 564,0.490143,-0.37386\C,0,2.977977,-0.614105,-1.1123\C,0,2.721878,0.62
 7351,1.069229\H,0,-2.15395,-0.057952,1.312993\H,0,0.601469,-1.850758,-
 0.623201\H,0,0.265267,2.429911,-0.220766\H,0,-0.007049,1.465084,1.2142
 18\H,0,0.466444,0.368258,-1.601602\H,0,-1.777592,1.499658,-1.28997\H,0
 ,-2.182997,2.189989,0.278736\H,0,-1.547487,-1.124682,-1.488778\H,0,-1.
 79278,-2.101839,-0.0387\H,0,-3.861235,-0.027737,-1.232792\H,0,-4.13986
 7,-1.04812,0.1878\H,0,-4.3013,0.712932,0.315474\H,0,-0.028216,-0.65278
 5,1.841283\H,0,2.43121,1.438932,-0.885802\H,0,2.879242,-1.580915,-0.60
 5315\H,0,2.624794,-0.73531,-2.144237\H,0,4.047048,-0.374566,-1.152807\
 H,0,2.540175,-0.285851,1.642487\H,0,2.248299,1.462862,1.597584\H,0,3.8
 01655,0.820436,1.062831\\Version=AM64L-G09RevC.01\State=1-A\HF=-468.28
 19398\RMSD=6.108e-09\Dipole=-0.3812388,0.6421581,-0.3348436\Quadrupole
 =0.2806657,-1.4811845,1.2005188,0.8605699,-1.5243112,2.4120654\PG=C01 
 [X(C10H20O1)]\\@


 GETTING A SIMPLE ANSWER FROM A PROFESSOR IS LIKE
 GETTING A THIMBLE OF WATER FROM A FIRE HYDRANT.
     -- PROF. LEN SHAPIRO, NDSU
 Job cpu time:  0 days  0 hours 11 minutes 36.6 seconds.
 File lengths (MBytes):  RWF=    121 Int=      0 D2E=      0 Chk=      7 Scr=      1
 Normal termination of Gaussian 09 at Thu Sep 19 09:36:37 2024.
