 Entering Gaussian System, Link 0=g09
 Input=/home/asarotti.iquir/SCF2/03_Mentol07_OptB_NMR_benzene.gjc
 Output=/home/asarotti.iquir/SCF2/03_Mentol07_OptB_NMR_benzene.log
 Initial command:
 /opt/ohpc/pub/apps/software/Gaussian/09/AMD64.SSE4a-enabled/g09/l1.exe /local/asarotti.iquir/Gau-1840158.inp -scrdir=/local/asarotti.iquir/
 Entering Link 1 = /opt/ohpc/pub/apps/software/Gaussian/09/AMD64.SSE4a-enabled/g09/l1.exe PID=   1840159.
  
 Copyright (c) 1988,1990,1992,1993,1995,1998,2003,2009,2011,
            Gaussian, Inc.  All Rights Reserved.
  
 This is part of the Gaussian(R) 09 program.  It is based on
 the Gaussian(R) 03 system (copyright 2003, Gaussian, Inc.),
 the Gaussian(R) 98 system (copyright 1998, Gaussian, Inc.),
 the Gaussian(R) 94 system (copyright 1995, Gaussian, Inc.),
 the Gaussian 92(TM) system (copyright 1992, Gaussian, Inc.),
 the Gaussian 90(TM) system (copyright 1990, Gaussian, Inc.),
 the Gaussian 88(TM) system (copyright 1988, Gaussian, Inc.),
 the Gaussian 86(TM) system (copyright 1986, Carnegie Mellon
 University), and the Gaussian 82(TM) system (copyright 1983,
 Carnegie Mellon University). Gaussian is a federally registered
 trademark of Gaussian, Inc.
  
 This software contains proprietary and confidential information,
 including trade secrets, belonging to Gaussian, Inc.
  
 This software is provided under written license and may be
 used, copied, transmitted, or stored only in accord with that
 written license.
  
 The following legend is applicable only to US Government
 contracts under FAR:
  
                    RESTRICTED RIGHTS LEGEND
  
 Use, reproduction and disclosure by the US Government is
 subject to restrictions as set forth in subparagraphs (a)
 and (c) of the Commercial Computer Software - Restricted
 Rights clause in FAR 52.227-19.
  
 Gaussian, Inc.
 340 Quinnipiac St., Bldg. 40, Wallingford CT 06492
  
  
 ---------------------------------------------------------------
 Warning -- This program may not be used in any manner that
 competes with the business of Gaussian, Inc. or will provide
 assistance to any competitor of Gaussian, Inc.  The licensee
 of this program is prohibited from giving any competitor of
 Gaussian, Inc. access to this program.  By using this program,
 the user acknowledges that Gaussian, Inc. is engaged in the
 business of creating and licensing software in the field of
 computational chemistry and represents and warrants to the
 licensee that it is not a competitor of Gaussian, Inc. and that
 it will not use this program in any manner prohibited above.
 ---------------------------------------------------------------
  

 Cite this work as:
 Gaussian 09, Revision C.01,
 M. J. Frisch, G. W. Trucks, H. B. Schlegel, G. E. Scuseria, 
 M. A. Robb, J. R. Cheeseman, G. Scalmani, V. Barone, B. Mennucci, 
 G. A. Petersson, H. Nakatsuji, M. Caricato, X. Li, H. P. Hratchian, 
 A. F. Izmaylov, J. Bloino, G. Zheng, J. L. Sonnenberg, M. Hada, 
 M. Ehara, K. Toyota, R. Fukuda, J. Hasegawa, M. Ishida, T. Nakajima, 
 Y. Honda, O. Kitao, H. Nakai, T. Vreven, J. A. Montgomery, Jr., 
 J. E. Peralta, F. Ogliaro, M. Bearpark, J. J. Heyd, E. Brothers, 
 K. N. Kudin, V. N. Staroverov, T. Keith, R. Kobayashi, J. Normand, 
 K. Raghavachari, A. Rendell, J. C. Burant, S. S. Iyengar, J. Tomasi, 
 M. Cossi, N. Rega, J. M. Millam, M. Klene, J. E. Knox, J. B. Cross, 
 V. Bakken, C. Adamo, J. Jaramillo, R. Gomperts, R. E. Stratmann, 
 O. Yazyev, A. J. Austin, R. Cammi, C. Pomelli, J. W. Ochterski, 
 R. L. Martin, K. Morokuma, V. G. Zakrzewski, G. A. Voth, 
 P. Salvador, J. J. Dannenberg, S. Dapprich, A. D. Daniels, 
 O. Farkas, J. B. Foresman, J. V. Ortiz, J. Cioslowski, 
 and D. J. Fox, Gaussian, Inc., Wallingford CT, 2010.
 
 ******************************************
 Gaussian 09:  AM64L-G09RevC.01 23-Sep-2011
                19-Sep-2024 
 ******************************************
 %nprocshared=4
 Will use up to    4 processors via shared memory.
 %mem=100mw
 --------------------------------------------------
 # mPW1PW91/6-31+G** nmr scrf=(pcm,solvent=benzene)
 --------------------------------------------------
 1/38=1/1;
 2/12=2,17=6,18=5,40=1/2;
 3/5=1,6=6,7=111,11=2,16=1,25=1,30=1,70=2201,72=12,74=-7/1,2,8,3;
 4//1;
 5/5=2,38=5,53=12/2;
 8/6=1,10=90,11=11/1;
 10/13=100,45=16/2;
 6/7=2,8=2,9=2,10=2,28=1/1;
 99/9=1/99;
 -------
 comment
 -------
 Charge =  0 Multiplicity = 1
 Symbolic Z-Matrix:
 6                     2.2146   -0.10427   0.25854 
 6                     0.12405   1.09194  -0.63194 
 6                    -0.12042  -1.03774   0.71945 
 6                    -0.70674  -0.19942  -0.43492 
 6                     1.36259  -1.36674   0.48173 
 6                     1.60783   0.75572  -0.86679 
 6                     3.68212  -0.44574  -0.02278 
 8                    -0.02357   2.04164   0.43288 
 6                    -2.24118   0.04233  -0.35791 
 6                    -2.74404   0.57441   0.99467 
 6                    -3.02268  -1.22156  -0.75722 
 1                     2.18908   0.48591   1.19048 
 1                    -0.2633    1.62537  -1.50804 
 1                    -0.69209  -1.96509   0.84443 
 1                    -0.22316  -0.49517   1.67112 
 1                    -0.53808  -0.77864  -1.35749 
 1                     1.45076  -2.01468  -0.40395 
 1                     1.76285  -1.94221   1.32724 
 1                     1.70246   0.21203  -1.81854 
 1                     2.16877   1.69235  -0.97512 
 1                     3.77628  -1.03613  -0.9434 
 1                     4.28582   0.46118  -0.14623 
 1                     4.11859  -1.03192   0.79489 
 1                     0.31455   1.63284   1.24448 
 1                    -2.46617   0.81126  -1.11287 
 1                    -2.60249  -0.16382   1.79418 
 1                    -2.22448   1.49353   1.27426 
 1                    -3.81828   0.78874   0.9402 
 1                    -2.85582  -2.04205  -0.04787 
 1                    -2.73277  -1.5779   -1.75334 
 1                    -4.1008   -1.02235  -0.77446 
 
                          Input orientation:                          
 ---------------------------------------------------------------------
 Center     Atomic      Atomic             Coordinates (Angstroms)
 Number     Number       Type             X           Y           Z
 ---------------------------------------------------------------------
      1          6           0        2.214598   -0.104267    0.258538
      2          6           0        0.124054    1.091939   -0.631939
      3          6           0       -0.120416   -1.037741    0.719452
      4          6           0       -0.706735   -0.199419   -0.434917
      5          6           0        1.362593   -1.366735    0.481725
      6          6           0        1.607833    0.755724   -0.866789
      7          6           0        3.682118   -0.445735   -0.022784
      8          8           0       -0.023573    2.041641    0.432878
      9          6           0       -2.241182    0.042328   -0.357908
     10          6           0       -2.744038    0.574407    0.994674
     11          6           0       -3.022683   -1.221562   -0.757219
     12          1           0        2.189077    0.485914    1.190476
     13          1           0       -0.263304    1.625366   -1.508043
     14          1           0       -0.692092   -1.965086    0.844433
     15          1           0       -0.223156   -0.495165    1.671116
     16          1           0       -0.538083   -0.778635   -1.357490
     17          1           0        1.450755   -2.014678   -0.403952
     18          1           0        1.762846   -1.942214    1.327242
     19          1           0        1.702463    0.212029   -1.818541
     20          1           0        2.168767    1.692348   -0.975124
     21          1           0        3.776283   -1.036128   -0.943396
     22          1           0        4.285824    0.461184   -0.146232
     23          1           0        4.118594   -1.031925    0.794890
     24          1           0        0.314553    1.632839    1.244483
     25          1           0       -2.466167    0.811256   -1.112871
     26          1           0       -2.602485   -0.163824    1.794184
     27          1           0       -2.224482    1.493531    1.274261
     28          1           0       -3.818277    0.788740    0.940203
     29          1           0       -2.855816   -2.042054   -0.047865
     30          1           0       -2.732772   -1.577901   -1.753337
     31          1           0       -4.100802   -1.022352   -0.774463
 ---------------------------------------------------------------------
                    Distance matrix (angstroms):
                    1          2          3          4          5
     1  C    0.000000
     2  C    2.567924   0.000000
     3  C    2.556581   2.534080   0.000000
     4  C    3.004017   1.548106   1.542440   0.000000
     5  C    1.539334   2.969731   1.537552   2.546562   0.000000
     6  C    1.540814   1.539414   2.952884   2.540873   2.526552
     7  C    1.532761   3.923688   3.919267   4.415037   2.546167
     8  O    3.105596   1.434421   3.094204   2.498425   3.679792
     9  C    4.500608   2.602137   2.612451   1.555281   3.959500
    10  C    5.058712   3.337613   3.091628   2.606365   4.571167
    11  C    5.450617   3.907677   3.261518   2.551915   4.559244
    12  H    1.103392   2.820068   2.806625   3.390768   2.148886
    13  H    3.500348   1.096425   3.474808   2.162885   3.944032
    14  H    3.500681   3.491586   1.096541   2.180489   2.170556
    15  H    2.844437   2.818424   1.100277   2.180984   2.165383
    16  H    3.262449   2.112794   2.134308   1.102305   2.709454
    17  H    2.161485   3.385732   2.164491   2.819732   1.100921
    18  H    2.173536   3.966121   2.175812   3.498767   1.098307
    19  H    2.162541   2.161861   3.365445   2.808548   2.810557
    20  H    2.179873   2.158499   3.945292   3.484124   3.482860
    21  H    2.179879   4.238449   4.236665   4.588691   2.822440
    22  H    2.184846   4.237227   4.734040   5.044341   3.504411
    23  H    2.184817   4.743732   4.239685   5.048692   2.793870
    24  H    2.756773   1.962096   2.756239   2.687114   3.267665
    25  H    4.962712   2.649401   3.504104   2.139319   4.684633
    26  H    5.056288   3.859667   2.842437   2.926436   4.346422
    27  H    4.825980   3.051311   3.338000   2.844455   4.655786
    28  H    6.136588   4.255060   4.130247   3.542472   5.630070
    29  H    5.436727   4.363792   3.013276   2.857212   4.304822
    30  H    5.540371   4.067805   3.637425   2.782673   4.670343
    31  H    6.464847   4.726515   4.251528   3.508875   5.616520
                    6          7          8          9         10
     6  C    0.000000
     7  C    2.541359   0.000000
     8  O    2.450347   4.486292   0.000000
     9  C    3.947507   5.952814   3.088751   0.000000
    10  C    4.736740   6.585696   3.141547   1.538002   0.000000
    11  C    5.036203   6.789378   4.589062   1.538704   2.524337
    12  H    2.154758   2.137555   2.808925   4.713964   4.937792
    13  H    2.160703   4.697000   1.999482   2.782233   3.677247
    14  H    3.952309   4.711073   4.082910   2.806246   3.268345
    15  H    3.370194   4.257101   2.829921   2.911746   2.820710
    16  H    2.683282   4.438734   3.379955   2.138619   3.497090
    17  H    2.813187   2.754243   4.396322   4.226558   5.124042
    18  H    3.480901   2.783096   4.456712   4.776021   5.172619
    19  H    1.100178   2.752532   3.375732   4.208870   5.274170
    20  H    1.097109   2.787218   2.628846   4.748807   5.409764
    21  H    2.814032   1.097706   5.079931   6.141315   6.990316
    22  H    2.788833   1.096450   4.626458   6.543856   7.122741
    23  H    3.501541   1.096686   5.170629   6.552077   7.050953
    24  H    2.626666   4.155350   0.969614   3.410156   3.246176
    25  H    4.081803   6.369437   3.141569   1.100835   2.138938
    26  H    5.064891   6.548059   3.656230   2.191926   1.097378
    27  H    4.451415   6.350669   2.419163   2.184089   1.092198
    28  H    5.719177   7.662062   4.028265   2.174730   1.096766
    29  H    5.331263   6.730040   4.992923   2.195120   2.818732
    30  H    5.007257   6.739987   5.021990   2.194089   3.490576
    31  H    5.979849   7.840367   5.241137   2.182945   2.742315
                   11         12         13         14         15
    11  C    0.000000
    12  H    5.819917   0.000000
    13  H    4.035209   3.820279   0.000000
    14  H    2.923999   3.798458   4.313855   0.000000
    15  H    3.776482   2.648093   3.821690   1.750421   0.000000
    16  H    2.594176   3.940637   2.424333   2.505963   3.058102
    17  H    4.556915   3.056187   4.172162   2.480467   3.068681
    18  H    5.269308   2.469045   4.987159   2.502069   2.481210
    19  H    5.050603   3.060390   2.440936   4.191080   4.047942
    20  H    5.957307   2.479056   2.490674   4.987196   4.184387
    21  H    6.804042   3.064187   4.870384   4.901599   4.808724
    22  H    7.524574   2.486714   4.889214   5.625642   4.954620
    23  H    7.310461   2.486636   5.618338   4.900606   4.461690
    24  H    4.826133   2.198225   2.812539   3.757451   2.235967
    25  H    2.137416   5.204090   2.381500   3.832291   3.806365
    26  H    2.793749   4.872955   4.424666   2.792163   2.405439
    27  H    3.483643   4.527893   3.406584   3.807230   2.849160
    28  H    2.748732   6.020186   4.396781   4.167225   3.886842
    29  H    1.097376   5.777115   4.722627   2.341756   3.504092
    30  H    1.096940   6.095077   4.052081   3.326063   4.381480
    31  H    1.096505   6.760061   4.719634   3.889586   4.614642
                   16         17         18         19         20
    16  H    0.000000
    17  H    2.528342   0.000000
    18  H    3.722362   1.760592   0.000000
    19  H    2.492796   2.650027   3.813182   0.000000
    20  H    3.684969   3.818877   4.321539   1.766391   0.000000
    21  H    4.341835   2.580047   3.167131   2.573811   3.166969
    22  H    5.125854   3.772788   3.783235   3.087467   2.585490
    23  H    5.136296   3.085513   2.581002   3.770296   3.788989
    24  H    3.648624   4.160850   3.858161   3.650632   2.892802
    25  H    2.510996   4.881675   5.605381   4.270190   4.719948
    26  H    3.817433   4.968523   4.736752   5.632550   5.820592
    27  H    3.864297   5.350822   5.263643   5.160288   4.939625
    28  H    4.300666   6.117892   6.225499   6.198535   6.350565
    29  H    2.946732   4.321354   4.820055   5.384616   6.328665
    30  H    2.369004   4.417410   5.461984   4.783243   5.943503
    31  H    3.618326   5.651705   6.296481   6.024258   6.835010
                   21         22         23         24         25
    21  H    0.000000
    22  H    1.771171   0.000000
    23  H    1.771675   1.772865   0.000000
    24  H    4.888126   4.367821   4.666244   0.000000
    25  H    6.512275   6.829811   7.099010   3.736913   0.000000
    26  H    6.995995   7.183638   6.850189   3.469767   3.069256
    27  H    6.879416   6.742969   6.844146   2.543028   2.494456
    28  H    8.034639   8.183159   8.144314   4.229110   2.458418
    29  H    6.767466   7.568282   7.097393   5.022573   3.070414
    30  H    6.581589   7.483405   7.330264   5.346210   2.487840
    31  H    7.878908   8.539968   8.367881   5.533673   2.479651
                   26         27         28         29         30
    26  H    0.000000
    27  H    1.777648   0.000000
    28  H    1.764883   1.774403   0.000000
    29  H    2.642928   3.827135   3.148969   0.000000
    30  H    3.821190   4.342626   3.746261   1.771782   0.000000
    31  H    3.095153   3.748001   2.509971   1.765709   1.771535
                   31
    31  H    0.000000
 Stoichiometry    C10H20O
 Framework group  C1[X(C10H20O)]
 Deg. of freedom    87
 Full point group                 C1      NOp   1
 Largest Abelian subgroup         C1      NOp   1
 Largest concise Abelian subgroup C1      NOp   1
                         Standard orientation:                         
 ---------------------------------------------------------------------
 Center     Atomic      Atomic             Coordinates (Angstroms)
 Number     Number       Type             X           Y           Z
 ---------------------------------------------------------------------
      1          6           0        2.214598   -0.104267    0.258538
      2          6           0        0.124054    1.091939   -0.631939
      3          6           0       -0.120416   -1.037741    0.719452
      4          6           0       -0.706735   -0.199419   -0.434917
      5          6           0        1.362593   -1.366735    0.481725
      6          6           0        1.607833    0.755724   -0.866789
      7          6           0        3.682118   -0.445735   -0.022784
      8          8           0       -0.023573    2.041641    0.432878
      9          6           0       -2.241182    0.042328   -0.357908
     10          6           0       -2.744038    0.574407    0.994674
     11          6           0       -3.022683   -1.221562   -0.757219
     12          1           0        2.189077    0.485914    1.190476
     13          1           0       -0.263304    1.625366   -1.508043
     14          1           0       -0.692092   -1.965086    0.844433
     15          1           0       -0.223156   -0.495165    1.671116
     16          1           0       -0.538083   -0.778635   -1.357490
     17          1           0        1.450755   -2.014678   -0.403952
     18          1           0        1.762846   -1.942214    1.327242
     19          1           0        1.702463    0.212029   -1.818541
     20          1           0        2.168767    1.692348   -0.975124
     21          1           0        3.776283   -1.036128   -0.943396
     22          1           0        4.285824    0.461184   -0.146232
     23          1           0        4.118594   -1.031925    0.794890
     24          1           0        0.314553    1.632839    1.244483
     25          1           0       -2.466167    0.811256   -1.112871
     26          1           0       -2.602485   -0.163824    1.794184
     27          1           0       -2.224482    1.493531    1.274261
     28          1           0       -3.818277    0.788740    0.940203
     29          1           0       -2.855816   -2.042054   -0.047865
     30          1           0       -2.732772   -1.577901   -1.753337
     31          1           0       -4.100802   -1.022352   -0.774463
 ---------------------------------------------------------------------
 Rotational constants (GHZ):      1.9355001      0.6703696      0.5888176
 Standard basis: 6-31+G(d,p) (6D, 7F)
 There are   309 symmetry adapted basis functions of A   symmetry.
 Integral buffers will be    131072 words long.
 Raffenetti 2 integral format.
 Two-electron integral symmetry is turned on.
   309 basis functions,   492 primitive gaussians,   309 cartesian basis functions
    44 alpha electrons       44 beta electrons
       nuclear repulsion energy       691.6469542457 Hartrees.
 NAtoms=   31 NActive=   31 NUniq=   31 SFac= 1.00D+00 NAtFMM=   60 NAOKFM=F Big=F
 ------------------------------------------------------------------------------
 Polarizable Continuum Model (PCM)
 =================================
 Model                : PCM.
 Atomic radii         : UFF (Universal Force Field).
 Polarization charges : Total charges.
 Charge compensation  : None.
 Solution method      : Matrix inversion.
 Cavity type          : Scaled VdW (van der Waals Surface) (Alpha=1.100).
 Cavity algorithm     : GePol (No added spheres)
                        Default sphere list used, NSphG=   31.
                        Lebedev-Laikov grids with approx.  5.0 points / Ang**2.
                        Smoothing algorithm: Karplus/York (Gamma=1.0000).
                        Polarization charges: spherical gaussians, with
                                              point-specific exponents (IZeta= 3).
                        Self-potential: point-specific (ISelfS= 7).
                        Self-field    : sphere-specific E.n sum rule (ISelfD= 2).
 Solvent              : Benzene, Eps=   2.270600 Eps(inf)=   2.253301
 ------------------------------------------------------------------------------
 One-electron integrals computed using PRISM.
 NBasis=   309 RedAO= T  NBF=   309
 NBsUse=   309 1.00D-06 NBFU=   309
 Harris functional with IExCor=  908 diagonalized for initial guess.
 ExpMin= 4.38D-02 ExpMax= 5.48D+03 ExpMxC= 8.25D+02 IAcc=2 IRadAn=         4 AccDes= 0.00D+00
 HarFok:  IExCor=  908 AccDes= 0.00D+00 IRadAn=         4 IDoV= 1
 ScaDFX=  1.000000  1.000000  1.000000  1.000000
 FoFCou: FMM=F IPFlag=           0 FMFlag=      100000 FMFlg1=           0
         NFxFlg=           0 DoJE=T BraDBF=F KetDBF=T FulRan=T
         Omega=  0.000000  0.000000  1.000000  0.000000  0.000000 ICntrl=     500 IOpCl=  0
         NMat0=    1 NMatS0=    1 NMatT0=    0 NMatD0=    1 NMtDS0=    0 NMtDT0=    0
         I1Cent=           4 NGrid=           0.
 Petite list used in FoFCou.
 Initial guess orbital symmetries:
       Occupied  (A) (A) (A) (A) (A) (A) (A) (A) (A) (A) (A) (A)
                 (A) (A) (A) (A) (A) (A) (A) (A) (A) (A) (A) (A)
                 (A) (A) (A) (A) (A) (A) (A) (A) (A) (A) (A) (A)
                 (A) (A) (A) (A) (A) (A) (A) (A)
       Virtual   (A) (A) (A) (A) (A) (A) (A) (A) (A) (A) (A) (A)
                 (A) (A) (A) (A) (A) (A) (A) (A) (A) (A) (A) (A)
                 (A) (A) (A) (A) (A) (A) (A) (A) (A) (A) (A) (A)
                 (A) (A) (A) (A) (A) (A) (A) (A) (A) (A) (A) (A)
                 (A) (A) (A) (A) (A) (A) (A) (A) (A) (A) (A) (A)
                 (A) (A) (A) (A) (A) (A) (A) (A) (A) (A) (A) (A)
                 (A) (A) (A) (A) (A) (A) (A) (A) (A) (A) (A) (A)
                 (A) (A) (A) (A) (A) (A) (A) (A) (A) (A) (A) (A)
                 (A) (A) (A) (A) (A) (A) (A) (A) (A) (A) (A) (A)
                 (A) (A) (A) (A) (A) (A) (A) (A) (A) (A) (A) (A)
                 (A) (A) (A) (A) (A) (A) (A) (A) (A) (A) (A) (A)
                 (A) (A) (A) (A) (A) (A) (A) (A) (A) (A) (A) (A)
                 (A) (A) (A) (A) (A) (A) (A) (A) (A) (A) (A) (A)
                 (A) (A) (A) (A) (A) (A) (A) (A) (A) (A) (A) (A)
                 (A) (A) (A) (A) (A) (A) (A) (A) (A) (A) (A) (A)
                 (A) (A) (A) (A) (A) (A) (A) (A) (A) (A) (A) (A)
                 (A) (A) (A) (A) (A) (A) (A) (A) (A) (A) (A) (A)
                 (A) (A) (A) (A) (A) (A) (A) (A) (A) (A) (A) (A)
                 (A) (A) (A) (A) (A) (A) (A) (A) (A) (A) (A) (A)
                 (A) (A) (A) (A) (A) (A) (A) (A) (A) (A) (A) (A)
                 (A) (A) (A) (A) (A) (A) (A) (A) (A) (A) (A) (A)
                 (A) (A) (A) (A) (A) (A) (A) (A) (A) (A) (A) (A)
                 (A)
 The electronic state of the initial guess is 1-A.
 Requested convergence on RMS density matrix=1.00D-08 within 128 cycles.
 Requested convergence on MAX density matrix=1.00D-06.
 Requested convergence on             energy=1.00D-06.
 No special actions if energy rises.
 Error on total polarization charges =  0.00938
 SCF Done:  E(RmPW1PW91) =  -468.282020899     A.U. after   12 cycles
             Convg  =    0.6491D-08             -V/T =  2.0099
 Range of M.O.s used for correlation:     1   309
 NBasis=   309 NAE=    44 NBE=    44 NFC=     0 NFV=     0
 NROrb=    309 NOA=    44 NOB=    44 NVA=   265 NVB=   265

 **** Warning!!: The largest alpha MO coefficient is  0.81658427D+02

 NEqPCM:  Using equilibrium solvation (IEInf=0, Eps=   2.2706, EpsInf=   2.2533)
          Differentiating once with respect to magnetic field using GIAOs.
          Electric field/nuclear overlap derivatives assumed to be zero.
 FoFCou: FMM=F IPFlag=           0 FMFlag=    10101102 FMFlg1=           0
         NFxFlg=    40000000 DoJE=F BraDBF=F KetDBF=T FulRan=T
         Omega=  0.000000  0.000000  1.000000  0.000000  0.000000 ICntrl=    6100 IOpCl=  0
         NMat0=    1 NMatS0=    1 NMatT0=    0 NMatD0=    1 NMtDS0=    0 NMtDT0=    0
         I1Cent=           7 NGrid=        1923.
 Symmetry not used in FoFCou.
          There are     3 degrees of freedom in the 1st order CPHF.  IDoFFX=0.
      3 vectors produced by pass  0 Test12= 3.89D-13 3.33D-08 XBig12= 4.03D+01 1.77D+00.
 AX will form     3 AO Fock derivatives at one time.
      3 vectors produced by pass  1 Test12= 3.89D-13 3.33D-08 XBig12= 8.69D-02 4.54D-02.
      3 vectors produced by pass  2 Test12= 3.89D-13 3.33D-08 XBig12= 1.80D-04 2.78D-03.
      3 vectors produced by pass  3 Test12= 3.89D-13 3.33D-08 XBig12= 1.09D-06 2.00D-04.
      3 vectors produced by pass  4 Test12= 3.89D-13 3.33D-08 XBig12= 3.26D-09 8.47D-06.
      3 vectors produced by pass  5 Test12= 3.89D-13 3.33D-08 XBig12= 7.05D-12 4.42D-07.
 Inverted reduced A of dimension    18 with in-core refinement.
 Calculating GIAO nuclear magnetic shielding tensors.
 SCF GIAO Magnetic shielding tensor (ppm):
      1  C    Isotropic =   166.9229   Anisotropy =    17.9513
   XX=   170.8608   YX=     4.4043   ZX=    -4.2246
   XY=     8.7755   YY=   169.2570   ZY=    -1.0069
   XZ=   -11.7774   YZ=     0.9668   ZZ=   160.6511
   Eigenvalues:   155.4463   166.4321   178.8905
      2  C    Isotropic =   120.0972   Anisotropy =    36.1247
   XX=   114.3755   YX=     4.9342   ZX=    -9.0000
   XY=     9.4732   YY=   119.1742   ZY=    23.3228
   XZ=     0.4393   YZ=    18.3143   ZZ=   126.7418
   Eigenvalues:    97.6874   118.4237   144.1803
      3  C    Isotropic =   174.6469   Anisotropy =    21.8386
   XX=   188.7256   YX=     0.0087   ZX=    -3.4306
   XY=    -4.4361   YY=   168.4412   ZY=    -1.5027
   XZ=    -1.0846   YZ=     3.0391   ZZ=   166.7738
   Eigenvalues:   166.3843   168.3503   189.2059
      4  C    Isotropic =   148.0481   Anisotropy =    17.3053
   XX=   155.9037   YX=     4.2793   ZX=    -2.7514
   XY=    -6.8703   YY=   142.8150   ZY=     8.8998
   XZ=    -6.6029   YZ=    10.9648   ZZ=   145.4256
   Eigenvalues:   133.8912   150.6680   159.5850
      5  C    Isotropic =   159.8286   Anisotropy =    18.9220
   XX=   167.6071   YX=     3.3121   ZX=    -5.2318
   XY=    10.9895   YY=   159.4083   ZY=     2.0590
   XZ=    -3.6896   YZ=    -1.3645   ZZ=   152.4703
   Eigenvalues:   150.4853   156.5571   172.4433
      6  C    Isotropic =   151.6115   Anisotropy =    23.9798
   XX=   162.1869   YX=   -10.7564   ZX=    -6.8034
   XY=    -9.8270   YY=   147.8517   ZY=     4.8521
   XZ=     7.8143   YZ=     1.0268   ZZ=   144.7958
   Eigenvalues:   140.5601   146.6763   167.5980
      7  C    Isotropic =   173.1573   Anisotropy =    37.9213
   XX=   196.8928   YX=    -4.7804   ZX=    -1.5120
   XY=    -7.7718   YY=   163.1227   ZY=    -0.9308
   XZ=    -7.0512   YZ=    -1.1954   ZZ=   159.4564
   Eigenvalues:   158.1931   162.8406   198.4382
      8  O    Isotropic =   290.4495   Anisotropy =    20.2614
   XX=   293.9434   YX=    -7.3505   ZX=    -5.7139
   XY=    -7.4853   YY=   296.7192   ZY=    -8.4041
   XZ=    -0.3775   YZ=    -8.5893   ZZ=   280.6859
   Eigenvalues:   275.1472   292.2442   303.9571
      9  C    Isotropic =   160.1692   Anisotropy =    18.6900
   XX=   172.0542   YX=    -1.8637   ZX=     4.2104
   XY=    -1.9633   YY=   156.1445   ZY=    -2.0487
   XZ=     0.5978   YZ=    -2.3344   ZZ=   152.3089
   Eigenvalues:   151.2146   156.6638   172.6292
     10  C    Isotropic =   177.6809   Anisotropy =    26.5345
   XX=   173.7249   YX=    -3.0461   ZX=    -8.8889
   XY=     0.7182   YY=   173.8196   ZY=    11.2167
   XZ=    -4.3810   YZ=    14.0265   ZZ=   185.4981
   Eigenvalues:   164.8581   172.8140   195.3705
     11  C    Isotropic =   172.3445   Anisotropy =    37.8578
   XX=   172.8749   YX=    13.3705   ZX=     2.7924
   XY=    15.5379   YY=   178.8314   ZY=    20.4295
   XZ=    -3.3500   YZ=    16.3424   ZZ=   165.3273
   Eigenvalues:   148.9964   170.4541   197.5831
     12  H    Isotropic =    30.0831   Anisotropy =     5.5460
   XX=    30.7522   YX=    -0.4062   ZX=     1.5778
   XY=    -0.7893   YY=    28.2556   ZY=     3.5543
   XZ=     1.2164   YZ=     3.3981   ZZ=    31.2414
   Eigenvalues:    25.6450    30.8238    33.7804
     13  H    Isotropic =    27.7441   Anisotropy =     5.3201
   XX=    26.4987   YX=    -0.2917   ZX=     0.2664
   XY=    -0.6055   YY=    26.4655   ZY=    -0.9695
   XZ=     1.3096   YZ=    -3.0169   ZZ=    30.2681
   Eigenvalues:    25.5983    26.3432    31.2908
     14  H    Isotropic =    30.0948   Anisotropy =     8.9705
   XX=    33.1034   YX=     3.2295   ZX=     0.0150
   XY=     2.4477   YY=    32.4313   ZY=    -3.3891
   XZ=    -0.0395   YZ=    -3.0870   ZZ=    24.7499
   Eigenvalues:    23.4634    30.7460    36.0752
     15  H    Isotropic =    30.3571   Anisotropy =     5.6799
   XX=    30.6491   YX=    -2.0345   ZX=    -1.4736
   XY=    -1.1203   YY=    26.9106   ZY=     0.3990
   XZ=    -1.0342   YZ=     0.6493   ZZ=    33.5116
   Eigenvalues:    26.3335    30.5942    34.1437
     16  H    Isotropic =    30.3724   Anisotropy =     4.6659
   XX=    32.2224   YX=     0.6053   ZX=     0.0915
   XY=     1.1622   YY=    27.5923   ZY=     3.1936
   XZ=     0.2492   YZ=     3.3122   ZZ=    31.3025
   Eigenvalues:    25.6323    32.0018    33.4830
     17  H    Isotropic =    30.6820   Anisotropy =     6.9477
   XX=    30.9317   YX=    -0.9097   ZX=    -1.3419
   XY=    -0.9896   YY=    32.9863   ZY=     3.8215
   XZ=    -0.6412   YZ=     3.4350   ZZ=    28.1279
   Eigenvalues:    26.1509    30.5813    35.3138
     18  H    Isotropic =    29.9291   Anisotropy =     8.9087
   XX=    30.4984   YX=    -1.6731   ZX=     1.7053
   XY=    -2.0156   YY=    29.9170   ZY=    -5.2024
   XZ=     1.3515   YZ=    -5.1024   ZZ=    29.3719
   Eigenvalues:    24.4801    29.4389    35.8682
     19  H    Isotropic =    30.4503   Anisotropy =     6.5554
   XX=    30.4458   YX=    -1.0144   ZX=    -2.2005
   XY=    -0.5959   YY=    26.9739   ZY=     0.6050
   XZ=    -1.5288   YZ=     0.4158   ZZ=    33.9311
   Eigenvalues:    26.7947    29.7356    34.8205
     20  H    Isotropic =    29.8358   Anisotropy =     8.0486
   XX=    30.5460   YX=     2.5869   ZX=    -1.1045
   XY=     1.5774   YY=    32.3710   ZY=    -3.4834
   XZ=    -1.6699   YZ=    -3.1676   ZZ=    26.5905
   Eigenvalues:    25.0417    29.2642    35.2015
     21  H    Isotropic =    30.9960   Anisotropy =     8.6153
   XX=    31.8513   YX=    -2.5508   ZX=    -3.2322
   XY=    -2.0111   YY=    29.4239   ZY=     3.2230
   XZ=    -2.5691   YZ=     3.1613   ZZ=    31.7128
   Eigenvalues:    27.1630    29.0855    36.7395
     22  H    Isotropic =    30.6364   Anisotropy =    10.7846
   XX=    35.3940   YX=     4.7524   ZX=    -0.7280
   XY=     3.5167   YY=    30.4880   ZY=    -0.4076
   XZ=    -0.7040   YZ=    -0.9447   ZZ=    26.0272
   Eigenvalues:    25.9251    28.1580    37.8261
     23  H    Isotropic =    30.5249   Anisotropy =    10.5178
   XX=    33.6683   YX=    -3.5440   ZX=     4.0639
   XY=    -2.6934   YY=    28.1932   ZY=    -3.2254
   XZ=     2.8815   YZ=    -2.5138   ZZ=    29.7133
   Eigenvalues:    25.9541    28.0839    37.5368
     24  H    Isotropic =    30.4952   Anisotropy =    12.1175
   XX=    25.5598   YX=    -2.3591   ZX=     4.4210
   XY=    -2.4144   YY=    28.9745   ZY=    -0.9457
   XZ=     3.9134   YZ=    -0.7738   ZZ=    36.9511
   Eigenvalues:    23.4507    29.4613    38.5735
     25  H    Isotropic =    29.7142   Anisotropy =     6.9359
   XX=    29.1342   YX=    -1.0162   ZX=     2.2857
   XY=    -0.2738   YY=    29.9121   ZY=    -3.5782
   XZ=     1.9956   YZ=    -3.5354   ZZ=    30.0963
   Eigenvalues:    26.0332    28.7712    34.3381
     26  H    Isotropic =    31.0094   Anisotropy =     6.7296
   XX=    30.3457   YX=    -0.7327   ZX=    -1.9939
   XY=    -1.0391   YY=    28.3959   ZY=    -1.9467
   XZ=    -1.4332   YZ=    -2.8573   ZZ=    34.2865
   Eigenvalues:    26.9223    30.6100    35.4958
     27  H    Isotropic =    29.6409   Anisotropy =     7.6606
   XX=    30.4004   YX=     1.8779   ZX=    -2.0138
   XY=     2.8376   YY=    31.6625   ZY=     4.0701
   XZ=    -1.4285   YZ=     5.0138   ZZ=    26.8598
   Eigenvalues:    23.1140    31.0608    34.7480
     28  H    Isotropic =    30.8526   Anisotropy =    10.8218
   XX=    36.4379   YX=    -3.1474   ZX=    -1.4650
   XY=    -3.0637   YY=    28.0710   ZY=     1.8215
   XZ=    -2.5443   YZ=     1.6329   ZZ=    28.0490
   Eigenvalues:    26.2424    28.2484    38.0671
     29  H    Isotropic =    30.5983   Anisotropy =     6.8758
   XX=    30.0222   YX=     2.3227   ZX=     0.8317
   XY=     1.7655   YY=    33.8441   ZY=    -2.7849
   XZ=     1.0999   YZ=    -1.8464   ZZ=    27.9287
   Eigenvalues:    26.3799    30.2330    35.1822
     30  H    Isotropic =    30.7706   Anisotropy =     9.9407
   XX=    28.7338   YX=     1.8796   ZX=     1.2062
   XY=     0.9134   YY=    29.4140   ZY=     5.4725
   XZ=     0.4583   YZ=     4.1525   ZZ=    34.1641
   Eigenvalues:    26.1860    28.7282    37.3978
     31  H    Isotropic =    30.6706   Anisotropy =    10.6153
   XX=    37.1552   YX=     0.7217   ZX=     1.9574
   XY=     2.1623   YY=    27.7586   ZY=     1.1500
   XZ=     1.6690   YZ=     1.5134   ZZ=    27.0980
   Eigenvalues:    26.0249    28.2394    37.7475
 End of Minotr Frequency-dependent properties file   721 does not exist.
 End of Minotr Frequency-dependent properties file   722 does not exist.

 **********************************************************************

            Population analysis using the SCF density.

 **********************************************************************

 Orbital symmetries:
       Occupied  (A) (A) (A) (A) (A) (A) (A) (A) (A) (A) (A) (A)
                 (A) (A) (A) (A) (A) (A) (A) (A) (A) (A) (A) (A)
                 (A) (A) (A) (A) (A) (A) (A) (A) (A) (A) (A) (A)
                 (A) (A) (A) (A) (A) (A) (A) (A)
       Virtual   (A) (A) (A) (A) (A) (A) (A) (A) (A) (A) (A) (A)
                 (A) (A) (A) (A) (A) (A) (A) (A) (A) (A) (A) (A)
                 (A) (A) (A) (A) (A) (A) (A) (A) (A) (A) (A) (A)
                 (A) (A) (A) (A) (A) (A) (A) (A) (A) (A) (A) (A)
                 (A) (A) (A) (A) (A) (A) (A) (A) (A) (A) (A) (A)
                 (A) (A) (A) (A) (A) (A) (A) (A) (A) (A) (A) (A)
                 (A) (A) (A) (A) (A) (A) (A) (A) (A) (A) (A) (A)
                 (A) (A) (A) (A) (A) (A) (A) (A) (A) (A) (A) (A)
                 (A) (A) (A) (A) (A) (A) (A) (A) (A) (A) (A) (A)
                 (A) (A) (A) (A) (A) (A) (A) (A) (A) (A) (A) (A)
                 (A) (A) (A) (A) (A) (A) (A) (A) (A) (A) (A) (A)
                 (A) (A) (A) (A) (A) (A) (A) (A) (A) (A) (A) (A)
                 (A) (A) (A) (A) (A) (A) (A) (A) (A) (A) (A) (A)
                 (A) (A) (A) (A) (A) (A) (A) (A) (A) (A) (A) (A)
                 (A) (A) (A) (A) (A) (A) (A) (A) (A) (A) (A) (A)
                 (A) (A) (A) (A) (A) (A) (A) (A) (A) (A) (A) (A)
                 (A) (A) (A) (A) (A) (A) (A) (A) (A) (A) (A) (A)
                 (A) (A) (A) (A) (A) (A) (A) (A) (A) (A) (A) (A)
                 (A) (A) (A) (A) (A) (A) (A) (A) (A) (A) (A) (A)
                 (A) (A) (A) (A) (A) (A) (A) (A) (A) (A) (A) (A)
                 (A) (A) (A) (A) (A) (A) (A) (A) (A) (A) (A) (A)
                 (A) (A) (A) (A) (A) (A) (A) (A) (A) (A) (A) (A)
                 (A)
 The electronic state is 1-A.
 Alpha  occ. eigenvalues --  -19.24444 -10.29447 -10.25500 -10.24989 -10.24874
 Alpha  occ. eigenvalues --  -10.24493 -10.24360 -10.24064 -10.23639 -10.23195
 Alpha  occ. eigenvalues --  -10.22521  -1.04965  -0.86073  -0.82265  -0.76795
 Alpha  occ. eigenvalues --   -0.75896  -0.69816  -0.69583  -0.63886  -0.62407
 Alpha  occ. eigenvalues --   -0.57648  -0.56467  -0.50839  -0.48536  -0.47099
 Alpha  occ. eigenvalues --   -0.46954  -0.45271  -0.43347  -0.42482  -0.42009
 Alpha  occ. eigenvalues --   -0.41355  -0.39692  -0.39413  -0.38002  -0.37389
 Alpha  occ. eigenvalues --   -0.35921  -0.35352  -0.34902  -0.34401  -0.32995
 Alpha  occ. eigenvalues --   -0.32682  -0.31789  -0.30080  -0.27360
 Alpha virt. eigenvalues --    0.00595   0.01543   0.01963   0.02759   0.03580
 Alpha virt. eigenvalues --    0.04373   0.04441   0.04743   0.06209   0.06643
 Alpha virt. eigenvalues --    0.07051   0.07104   0.07722   0.08703   0.09021
 Alpha virt. eigenvalues --    0.09467   0.09943   0.10221   0.10722   0.11048
 Alpha virt. eigenvalues --    0.12104   0.12901   0.13832   0.13914   0.14500
 Alpha virt. eigenvalues --    0.15200   0.15565   0.15875   0.17357   0.17826
 Alpha virt. eigenvalues --    0.18201   0.18478   0.19209   0.19488   0.19728
 Alpha virt. eigenvalues --    0.20355   0.20705   0.21379   0.22265   0.22446
 Alpha virt. eigenvalues --    0.22717   0.23000   0.23924   0.24200   0.24914
 Alpha virt. eigenvalues --    0.25240   0.25354   0.25772   0.26242   0.27362
 Alpha virt. eigenvalues --    0.27723   0.28459   0.28836   0.29231   0.30498
 Alpha virt. eigenvalues --    0.31039   0.31468   0.32083   0.32578   0.33214
 Alpha virt. eigenvalues --    0.33940   0.34502   0.35392   0.36407   0.36661
 Alpha virt. eigenvalues --    0.37286   0.38411   0.38932   0.40367   0.41417
 Alpha virt. eigenvalues --    0.43492   0.44679   0.46791   0.50045   0.52443
 Alpha virt. eigenvalues --    0.62218   0.63879   0.65716   0.65789   0.66345
 Alpha virt. eigenvalues --    0.67412   0.68910   0.69755   0.72072   0.73140
 Alpha virt. eigenvalues --    0.73464   0.74486   0.74986   0.76432   0.77039
 Alpha virt. eigenvalues --    0.77908   0.78958   0.81349   0.82465   0.84356
 Alpha virt. eigenvalues --    0.86568   0.88229   0.88973   0.89490   0.91134
 Alpha virt. eigenvalues --    0.94055   0.97434   0.98388   0.99938   1.00657
 Alpha virt. eigenvalues --    1.01522   1.01857   1.02522   1.03469   1.04715
 Alpha virt. eigenvalues --    1.05308   1.05944   1.08190   1.09451   1.10810
 Alpha virt. eigenvalues --    1.12161   1.13794   1.14616   1.16320   1.16692
 Alpha virt. eigenvalues --    1.17551   1.18610   1.19321   1.20665   1.21089
 Alpha virt. eigenvalues --    1.22425   1.26042   1.26980   1.31616   1.32998
 Alpha virt. eigenvalues --    1.37671   1.39289   1.40008   1.42674   1.46204
 Alpha virt. eigenvalues --    1.48042   1.49804   1.51970   1.54061   1.56966
 Alpha virt. eigenvalues --    1.58316   1.60037   1.62794   1.64607   1.68670
 Alpha virt. eigenvalues --    1.68929   1.71344   1.74261   1.77260   1.80850
 Alpha virt. eigenvalues --    1.81299   1.83608   1.84897   1.87166   1.89056
 Alpha virt. eigenvalues --    1.89293   1.90782   1.91833   1.93023   1.94945
 Alpha virt. eigenvalues --    1.95460   1.96437   2.00010   2.01002   2.02167
 Alpha virt. eigenvalues --    2.04647   2.05077   2.05849   2.06890   2.08568
 Alpha virt. eigenvalues --    2.10572   2.11565   2.12663   2.14220   2.14893
 Alpha virt. eigenvalues --    2.16003   2.16327   2.16821   2.18489   2.20370
 Alpha virt. eigenvalues --    2.20790   2.21874   2.23362   2.25636   2.30116
 Alpha virt. eigenvalues --    2.32541   2.33356   2.35184   2.35696   2.36579
 Alpha virt. eigenvalues --    2.38687   2.39365   2.40104   2.42888   2.44564
 Alpha virt. eigenvalues --    2.46633   2.51090   2.51285   2.54098   2.58254
 Alpha virt. eigenvalues --    2.59498   2.60271   2.62041   2.67012   2.67717
 Alpha virt. eigenvalues --    2.68466   2.69914   2.70654   2.71856   2.72435
 Alpha virt. eigenvalues --    2.73628   2.74964   2.75956   2.77707   2.78461
 Alpha virt. eigenvalues --    2.79366   2.81161   2.83121   2.83852   2.85074
 Alpha virt. eigenvalues --    2.87360   2.88715   2.90493   2.91466   2.92522
 Alpha virt. eigenvalues --    2.93346   2.94887   2.95596   2.96965   3.00632
 Alpha virt. eigenvalues --    3.00919   3.01996   3.07207   3.13632   3.29220
 Alpha virt. eigenvalues --    3.29386   3.31749   3.34751   3.37513   3.38406
 Alpha virt. eigenvalues --    3.40714   3.41554   3.48399   3.48744   3.49857
 Alpha virt. eigenvalues --    3.50792   3.53508   3.53995   3.54593   3.56278
 Alpha virt. eigenvalues --    3.58457   3.58969   3.62483   3.64080   4.34309
 Alpha virt. eigenvalues --    4.41091   4.44728   4.52750   4.58118   4.60304
 Alpha virt. eigenvalues --    4.62940   4.76341   4.84778   4.86909   4.94680
          Condensed to atoms (all electrons):
              1          2          3          4          5          6
     1  C    7.534161   0.040457   0.037982   0.155548  -0.151893  -0.376440
     2  C    0.040457   7.633805  -0.046675  -1.567937   0.216994  -0.599068
     3  C    0.037982  -0.046675   5.838459  -0.046374   0.023862  -0.199436
     4  C    0.155548  -1.567937  -0.046374   8.329937  -0.259670   0.318076
     5  C   -0.151893   0.216994   0.023862  -0.259670   5.936551  -0.115827
     6  C   -0.376440  -0.599068  -0.199436   0.318076  -0.115827   6.543886
     7  C   -1.203633  -0.516852  -0.099763   0.112943   0.087430   0.421656
     8  O   -0.022651   0.360902   0.045712  -0.274894  -0.034298  -0.142669
     9  C   -0.057350   0.800884   0.087598  -1.451273   0.035269  -0.183209
    10  C    0.036933  -0.219483   0.008732   0.183653  -0.092715   0.040872
    11  C   -0.002179  -0.116709   0.046806   0.207066   0.013554  -0.035345
    12  H    0.218914  -0.058247  -0.024516   0.006179   0.008433   0.015255
    13  H    0.032821   0.185633   0.012908   0.105267  -0.016173   0.060271
    14  H    0.023728   0.031247   0.314580  -0.052013   0.020576   0.002771
    15  H   -0.002122  -0.023677   0.421083  -0.029142  -0.037221  -0.022255
    16  H    0.007920  -0.018100   0.024742   0.291636  -0.031192  -0.060092
    17  H   -0.094610  -0.007730  -0.066978   0.016613   0.455672  -0.005615
    18  H   -0.046390  -0.009802  -0.022388   0.031237   0.339342   0.047197
    19  H   -0.087815  -0.091474   0.007864   0.020700  -0.007975   0.419452
    20  H   -0.033460  -0.030233  -0.009671   0.046975   0.037988   0.349587
    21  H   -0.146062  -0.011138  -0.001707   0.003476   0.008639   0.010146
    22  H   -0.110574  -0.000935  -0.010648   0.003071   0.025563  -0.001189
    23  H   -0.131349  -0.014477   0.001376   0.002420  -0.005529   0.037577
    24  H    0.044197  -0.052213  -0.010440   0.047279  -0.013640  -0.018529
    25  H    0.001607  -0.048118   0.004201   0.000116  -0.010761   0.020552
    26  H   -0.000803  -0.006010   0.005907   0.005114  -0.004789   0.003809
    27  H   -0.002553   0.009854  -0.020308   0.022870   0.004617   0.002954
    28  H   -0.000139   0.007626  -0.006375   0.040136   0.001434   0.000602
    29  H    0.000837  -0.002201  -0.006027   0.007290  -0.000934   0.000379
    30  H   -0.000089  -0.003132   0.022752  -0.013053  -0.003012  -0.004479
    31  H   -0.000213  -0.004143  -0.000109   0.037143   0.000968   0.000047
              7          8          9         10         11         12
     1  C   -1.203633  -0.022651  -0.057350   0.036933  -0.002179   0.218914
     2  C   -0.516852   0.360902   0.800884  -0.219483  -0.116709  -0.058247
     3  C   -0.099763   0.045712   0.087598   0.008732   0.046806  -0.024516
     4  C    0.112943  -0.274894  -1.451273   0.183653   0.207066   0.006179
     5  C    0.087430  -0.034298   0.035269  -0.092715   0.013554   0.008433
     6  C    0.421656  -0.142669  -0.183209   0.040872  -0.035345   0.015255
     7  C    6.487363   0.037917  -0.036694   0.004284  -0.005650   0.087563
     8  O    0.037917   8.204119   0.086338  -0.000219   0.012578   0.006443
     9  C   -0.036694   0.086338   7.397847  -0.321342  -0.274162   0.002104
    10  C    0.004284  -0.000219  -0.321342   5.705150  -0.069414   0.000720
    11  C   -0.005650   0.012578  -0.274162  -0.069414   5.566971  -0.000095
    12  H    0.087563   0.006443   0.002104   0.000720  -0.000095   0.589549
    13  H    0.011518  -0.056562  -0.086477   0.022766  -0.000324  -0.000102
    14  H    0.000931  -0.000956   0.025507  -0.020451  -0.012227  -0.000007
    15  H    0.001523   0.005019  -0.026882   0.012035   0.007260   0.002535
    16  H   -0.000038   0.012385   0.028935   0.010835   0.001449   0.000060
    17  H    0.009023   0.000552  -0.002594   0.000924   0.002038   0.005145
    18  H   -0.010886  -0.000007  -0.001064   0.001724  -0.001558  -0.004668
    19  H    0.032426   0.010380   0.005150  -0.000022   0.000185   0.005166
    20  H   -0.021991  -0.006847  -0.004499  -0.001461   0.000852  -0.004325
    21  H    0.485582   0.000104  -0.000101   0.000007   0.000034   0.004988
    22  H    0.455607  -0.000149  -0.000309  -0.000017   0.000015  -0.003968
    23  H    0.469526   0.000041  -0.000480   0.000077  -0.000035  -0.003908
    24  H    0.017613   0.251633  -0.041639   0.029437  -0.002926   0.000948
    25  H    0.000200  -0.000733   0.295559   0.032691  -0.023785   0.000001
    26  H   -0.000123  -0.000911  -0.102508   0.447154   0.000488   0.000003
    27  H   -0.000247  -0.006168  -0.076912   0.436365  -0.005767   0.000002
    28  H    0.000018   0.000313  -0.112256   0.425250   0.000077   0.000000
    29  H    0.000128  -0.000058  -0.093644   0.003714   0.438990   0.000000
    30  H   -0.000097   0.000150  -0.086031   0.000304   0.444776   0.000000
    31  H   -0.000006   0.000047  -0.136080   0.004508   0.456992   0.000000
             13         14         15         16         17         18
     1  C    0.032821   0.023728  -0.002122   0.007920  -0.094610  -0.046390
     2  C    0.185633   0.031247  -0.023677  -0.018100  -0.007730  -0.009802
     3  C    0.012908   0.314580   0.421083   0.024742  -0.066978  -0.022388
     4  C    0.105267  -0.052013  -0.029142   0.291636   0.016613   0.031237
     5  C   -0.016173   0.020576  -0.037221  -0.031192   0.455672   0.339342
     6  C    0.060271   0.002771  -0.022255  -0.060092  -0.005615   0.047197
     7  C    0.011518   0.000931   0.001523  -0.000038   0.009023  -0.010886
     8  O   -0.056562  -0.000956   0.005019   0.012385   0.000552  -0.000007
     9  C   -0.086477   0.025507  -0.026882   0.028935  -0.002594  -0.001064
    10  C    0.022766  -0.020451   0.012035   0.010835   0.000924   0.001724
    11  C   -0.000324  -0.012227   0.007260   0.001449   0.002038  -0.001558
    12  H   -0.000102  -0.000007   0.002535   0.000060   0.005145  -0.004668
    13  H    0.582890  -0.000115  -0.000102  -0.003832  -0.000065   0.000013
    14  H   -0.000115   0.542116  -0.029521  -0.004493  -0.003904  -0.002769
    15  H   -0.000102  -0.029521   0.557426   0.004987   0.004558  -0.004168
    16  H   -0.003832  -0.004493   0.004987   0.578593   0.002956   0.000019
    17  H   -0.000065  -0.003904   0.004558   0.002956   0.543771  -0.029309
    18  H    0.000013  -0.002769  -0.004168   0.000019  -0.029309   0.551540
    19  H   -0.003185  -0.000017   0.000053   0.000770   0.002868  -0.000040
    20  H   -0.004455   0.000010  -0.000016   0.000106  -0.000027  -0.000131
    21  H   -0.000003   0.000000   0.000001  -0.000001   0.003246  -0.000178
    22  H   -0.000003   0.000002   0.000001   0.000001  -0.000004   0.000007
    23  H    0.000002  -0.000004   0.000000   0.000000  -0.000241   0.002858
    24  H    0.007658  -0.000109   0.000029  -0.000197  -0.000011   0.000059
    25  H    0.005140  -0.000002  -0.000022  -0.002304   0.000000   0.000002
    26  H   -0.000002  -0.000010  -0.001129  -0.000042  -0.000001   0.000005
    27  H   -0.000014   0.000171  -0.000352  -0.000102  -0.000001   0.000000
    28  H   -0.000007  -0.000009   0.000050  -0.000095   0.000000   0.000000
    29  H    0.000003   0.000711   0.000069  -0.000505   0.000008   0.000005
    30  H    0.000026  -0.000032   0.000007   0.004117  -0.000001   0.000000
    31  H   -0.000006  -0.000062  -0.000004   0.000215   0.000000   0.000000
             19         20         21         22         23         24
     1  C   -0.087815  -0.033460  -0.146062  -0.110574  -0.131349   0.044197
     2  C   -0.091474  -0.030233  -0.011138  -0.000935  -0.014477  -0.052213
     3  C    0.007864  -0.009671  -0.001707  -0.010648   0.001376  -0.010440
     4  C    0.020700   0.046975   0.003476   0.003071   0.002420   0.047279
     5  C   -0.007975   0.037988   0.008639   0.025563  -0.005529  -0.013640
     6  C    0.419452   0.349587   0.010146  -0.001189   0.037577  -0.018529
     7  C    0.032426  -0.021991   0.485582   0.455607   0.469526   0.017613
     8  O    0.010380  -0.006847   0.000104  -0.000149   0.000041   0.251633
     9  C    0.005150  -0.004499  -0.000101  -0.000309  -0.000480  -0.041639
    10  C   -0.000022  -0.001461   0.000007  -0.000017   0.000077   0.029437
    11  C    0.000185   0.000852   0.000034   0.000015  -0.000035  -0.002926
    12  H    0.005166  -0.004325   0.004988  -0.003968  -0.003908   0.000948
    13  H   -0.003185  -0.004455  -0.000003  -0.000003   0.000002   0.007658
    14  H   -0.000017   0.000010   0.000000   0.000002  -0.000004  -0.000109
    15  H    0.000053  -0.000016   0.000001   0.000001   0.000000   0.000029
    16  H    0.000770   0.000106  -0.000001   0.000001   0.000000  -0.000197
    17  H    0.002868  -0.000027   0.003246  -0.000004  -0.000241  -0.000011
    18  H   -0.000040  -0.000131  -0.000178   0.000007   0.002858   0.000059
    19  H    0.544881  -0.027046   0.003262  -0.000289   0.000006  -0.000101
    20  H   -0.027046   0.533260  -0.000129   0.002657  -0.000013  -0.000584
    21  H    0.003262  -0.000129   0.532175  -0.027767  -0.027874   0.000001
    22  H   -0.000289   0.002657  -0.027767   0.528025  -0.025470  -0.000001
    23  H    0.000006  -0.000013  -0.027874  -0.025470   0.531487   0.000011
    24  H   -0.000101  -0.000584   0.000001  -0.000001   0.000011   0.386979
    25  H    0.000008  -0.000013   0.000000   0.000000   0.000000   0.000192
    26  H    0.000000   0.000000   0.000000   0.000000   0.000000   0.000022
    27  H   -0.000001   0.000005   0.000000   0.000000   0.000000  -0.000921
    28  H    0.000000   0.000000   0.000000   0.000000   0.000000  -0.000002
    29  H    0.000000   0.000000   0.000000   0.000000   0.000000   0.000002
    30  H    0.000000   0.000000   0.000000   0.000000   0.000000   0.000000
    31  H    0.000000   0.000000   0.000000   0.000000   0.000000   0.000000
             25         26         27         28         29         30
     1  C    0.001607  -0.000803  -0.002553  -0.000139   0.000837  -0.000089
     2  C   -0.048118  -0.006010   0.009854   0.007626  -0.002201  -0.003132
     3  C    0.004201   0.005907  -0.020308  -0.006375  -0.006027   0.022752
     4  C    0.000116   0.005114   0.022870   0.040136   0.007290  -0.013053
     5  C   -0.010761  -0.004789   0.004617   0.001434  -0.000934  -0.003012
     6  C    0.020552   0.003809   0.002954   0.000602   0.000379  -0.004479
     7  C    0.000200  -0.000123  -0.000247   0.000018   0.000128  -0.000097
     8  O   -0.000733  -0.000911  -0.006168   0.000313  -0.000058   0.000150
     9  C    0.295559  -0.102508  -0.076912  -0.112256  -0.093644  -0.086031
    10  C    0.032691   0.447154   0.436365   0.425250   0.003714   0.000304
    11  C   -0.023785   0.000488  -0.005767   0.000077   0.438990   0.444776
    12  H    0.000001   0.000003   0.000002   0.000000   0.000000   0.000000
    13  H    0.005140  -0.000002  -0.000014  -0.000007   0.000003   0.000026
    14  H   -0.000002  -0.000010   0.000171  -0.000009   0.000711  -0.000032
    15  H   -0.000022  -0.001129  -0.000352   0.000050   0.000069   0.000007
    16  H   -0.002304  -0.000042  -0.000102  -0.000095  -0.000505   0.004117
    17  H    0.000000  -0.000001  -0.000001   0.000000   0.000008  -0.000001
    18  H    0.000002   0.000005   0.000000   0.000000   0.000005   0.000000
    19  H    0.000008   0.000000  -0.000001   0.000000   0.000000   0.000000
    20  H   -0.000013   0.000000   0.000005   0.000000   0.000000   0.000000
    21  H    0.000000   0.000000   0.000000   0.000000   0.000000   0.000000
    22  H    0.000000   0.000000   0.000000   0.000000   0.000000   0.000000
    23  H    0.000000   0.000000   0.000000   0.000000   0.000000   0.000000
    24  H    0.000192   0.000022  -0.000921  -0.000002   0.000002   0.000000
    25  H    0.581227   0.004867  -0.003176  -0.004065   0.005051  -0.003700
    26  H    0.004867   0.541628  -0.026929  -0.028243   0.003201   0.000010
    27  H   -0.003176  -0.026929   0.501259  -0.023968   0.000008  -0.000139
    28  H   -0.004065  -0.028243  -0.023968   0.537978  -0.000129   0.000068
    29  H    0.005051   0.003201   0.000008  -0.000129   0.539791  -0.028706
    30  H   -0.003700   0.000010  -0.000139   0.000068  -0.028706   0.535840
    31  H   -0.003798  -0.000183   0.000054   0.002743  -0.028115  -0.025141
             31
     1  C   -0.000213
     2  C   -0.004143
     3  C   -0.000109
     4  C    0.037143
     5  C    0.000968
     6  C    0.000047
     7  C   -0.000006
     8  O    0.000047
     9  C   -0.136080
    10  C    0.004508
    11  C    0.456992
    12  H    0.000000
    13  H   -0.000006
    14  H   -0.000062
    15  H   -0.000004
    16  H    0.000215
    17  H    0.000000
    18  H    0.000000
    19  H    0.000000
    20  H    0.000000
    21  H    0.000000
    22  H    0.000000
    23  H    0.000000
    24  H    0.000000
    25  H   -0.003798
    26  H   -0.000183
    27  H    0.000054
    28  H    0.002743
    29  H   -0.028115
    30  H   -0.025141
    31  H    0.530948
 Mulliken atomic charges:
              1
     1  C    0.335218
     2  C    0.160953
     3  C   -0.333148
     4  C   -0.300390
     5  C   -0.431261
     6  C   -0.530934
     7  C   -0.827270
     8  O   -0.487511
     9  C    0.330314
    10  C   -0.683012
    11  C   -0.649956
    12  H    0.145827
    13  H    0.144513
    14  H    0.164351
    15  H    0.159975
    16  H    0.151266
    17  H    0.163717
    18  H    0.159350
    19  H    0.164792
    20  H    0.173460
    21  H    0.163298
    22  H    0.166375
    23  H    0.164001
    24  H    0.355255
    25  H    0.149064
    26  H    0.159472
    27  H    0.189397
    28  H    0.158993
    29  H    0.160132
    30  H    0.159562
    31  H    0.164196
 Sum of Mulliken atomic charges =   0.00000
 Mulliken charges with hydrogens summed into heavy atoms:
              1
     1  C    0.481045
     2  C    0.305466
     3  C   -0.008821
     4  C   -0.149124
     5  C   -0.108194
     6  C   -0.192682
     7  C   -0.333597
     8  O   -0.132255
     9  C    0.479378
    10  C   -0.175149
    11  C   -0.166067
 Sum of Mulliken charges with hydrogens summed into heavy atoms =   0.00000
 Electronic spatial extent (au):  <R**2>=           2184.1690
 Charge=              0.0000 electrons
 Dipole moment (field-independent basis, Debye):
    X=              0.8370    Y=             -1.8193    Z=             -0.0165  Tot=              2.0027
 Quadrupole moment (field-independent basis, Debye-Ang):
   XX=            -72.1395   YY=            -78.3681   ZZ=            -69.0594
   XY=              0.8099   XZ=              1.3709   YZ=             -0.5782
 Traceless Quadrupole moment (field-independent basis, Debye-Ang):
   XX=              1.0495   YY=             -5.1791   ZZ=              4.1296
   XY=              0.8099   XZ=              1.3709   YZ=             -0.5782
 Octapole moment (field-independent basis, Debye-Ang**2):
  XXX=             -0.2031  YYY=             -9.8361  ZZZ=              3.2889  XYY=              3.2437
  XXY=              5.8021  XXZ=             -0.0465  XZZ=              3.2740  YZZ=              5.5567
  YYZ=             -1.0488  XYZ=              2.1845
 Hexadecapole moment (field-independent basis, Debye-Ang**3):
 XXXX=          -2112.6075 YYYY=           -643.8897 ZZZZ=           -331.5896 XXXY=             -1.9436
 XXXZ=             10.9254 YYYX=              3.0100 YYYZ=             -7.0713 ZZZX=              7.2620
 ZZZY=              8.6617 XXYY=           -453.2827 XXZZ=           -412.4657 YYZZ=           -145.3349
 XXYZ=             -5.0151 YYXZ=              1.0662 ZZXY=             -1.5612
 N-N= 6.916469542457D+02 E-N=-2.468481007243D+03  KE= 4.636965397254D+02
 1\1\GINC-COMPUTE-10-2\SP\RmPW1PW91\6-31+G(d,p)\C10H20O1\ASAROTTI.IQUIR
 \19-Sep-2024\0\\# mPW1PW91/6-31+G** nmr scrf=(pcm,solvent=benzene)\\co
 mment\\0,1\C,0,2.214598,-0.104267,0.258538\C,0,0.124054,1.091939,-0.63
 1939\C,0,-0.120416,-1.037741,0.719452\C,0,-0.706735,-0.199419,-0.43491
 7\C,0,1.362593,-1.366735,0.481725\C,0,1.607833,0.755724,-0.866789\C,0,
 3.682118,-0.445735,-0.022784\O,0,-0.023573,2.041641,0.432878\C,0,-2.24
 1182,0.042328,-0.357908\C,0,-2.744038,0.574407,0.994674\C,0,-3.022683,
 -1.221562,-0.757219\H,0,2.189077,0.485914,1.190476\H,0,-0.263304,1.625
 366,-1.508043\H,0,-0.692092,-1.965086,0.844433\H,0,-0.223156,-0.495165
 ,1.671116\H,0,-0.538083,-0.778635,-1.35749\H,0,1.450755,-2.014678,-0.4
 03952\H,0,1.762846,-1.942214,1.327242\H,0,1.702463,0.212029,-1.818541\
 H,0,2.168767,1.692348,-0.975124\H,0,3.776283,-1.036128,-0.943396\H,0,4
 .285824,0.461184,-0.146232\H,0,4.118594,-1.031925,0.79489\H,0,0.314553
 ,1.632839,1.244483\H,0,-2.466167,0.811256,-1.112871\H,0,-2.602485,-0.1
 63824,1.794184\H,0,-2.224482,1.493531,1.274261\H,0,-3.818277,0.78874,0
 .940203\H,0,-2.855816,-2.042054,-0.047865\H,0,-2.732772,-1.577901,-1.7
 53337\H,0,-4.100802,-1.022352,-0.774463\\Version=AM64L-G09RevC.01\Stat
 e=1-A\HF=-468.2820209\RMSD=6.491e-09\Dipole=0.3293049,-0.7157857,-0.00
 64981\Quadrupole=0.7802993,-3.850548,3.0702487,0.6021238,1.019202,-0.4
 298886\PG=C01 [X(C10H20O1)]\\@


 A DANDELION FROM A LOVER MEANS MORE THAN AN ORCHID FROM A FRIEND.
 Job cpu time:  0 days  0 hours  9 minutes 22.0 seconds.
 File lengths (MBytes):  RWF=    121 Int=      0 D2E=      0 Chk=      7 Scr=      1
 Normal termination of Gaussian 09 at Thu Sep 19 09:44:35 2024.
