 Entering Gaussian System, Link 0=g09
 Input=/home/asarotti.iquir/SCF2/04_Mentol03_OptB_NMR_benzene.gjc
 Output=/home/asarotti.iquir/SCF2/04_Mentol03_OptB_NMR_benzene.log
 Initial command:
 /opt/ohpc/pub/apps/software/Gaussian/09/AMD64.SSE4a-enabled/g09/l1.exe /local/asarotti.iquir/Gau-2485955.inp -scrdir=/local/asarotti.iquir/
 Entering Link 1 = /opt/ohpc/pub/apps/software/Gaussian/09/AMD64.SSE4a-enabled/g09/l1.exe PID=   2485956.
  
 Copyright (c) 1988,1990,1992,1993,1995,1998,2003,2009,2011,
            Gaussian, Inc.  All Rights Reserved.
  
 This is part of the Gaussian(R) 09 program.  It is based on
 the Gaussian(R) 03 system (copyright 2003, Gaussian, Inc.),
 the Gaussian(R) 98 system (copyright 1998, Gaussian, Inc.),
 the Gaussian(R) 94 system (copyright 1995, Gaussian, Inc.),
 the Gaussian 92(TM) system (copyright 1992, Gaussian, Inc.),
 the Gaussian 90(TM) system (copyright 1990, Gaussian, Inc.),
 the Gaussian 88(TM) system (copyright 1988, Gaussian, Inc.),
 the Gaussian 86(TM) system (copyright 1986, Carnegie Mellon
 University), and the Gaussian 82(TM) system (copyright 1983,
 Carnegie Mellon University). Gaussian is a federally registered
 trademark of Gaussian, Inc.
  
 This software contains proprietary and confidential information,
 including trade secrets, belonging to Gaussian, Inc.
  
 This software is provided under written license and may be
 used, copied, transmitted, or stored only in accord with that
 written license.
  
 The following legend is applicable only to US Government
 contracts under FAR:
  
                    RESTRICTED RIGHTS LEGEND
  
 Use, reproduction and disclosure by the US Government is
 subject to restrictions as set forth in subparagraphs (a)
 and (c) of the Commercial Computer Software - Restricted
 Rights clause in FAR 52.227-19.
  
 Gaussian, Inc.
 340 Quinnipiac St., Bldg. 40, Wallingford CT 06492
  
  
 ---------------------------------------------------------------
 Warning -- This program may not be used in any manner that
 competes with the business of Gaussian, Inc. or will provide
 assistance to any competitor of Gaussian, Inc.  The licensee
 of this program is prohibited from giving any competitor of
 Gaussian, Inc. access to this program.  By using this program,
 the user acknowledges that Gaussian, Inc. is engaged in the
 business of creating and licensing software in the field of
 computational chemistry and represents and warrants to the
 licensee that it is not a competitor of Gaussian, Inc. and that
 it will not use this program in any manner prohibited above.
 ---------------------------------------------------------------
  

 Cite this work as:
 Gaussian 09, Revision C.01,
 M. J. Frisch, G. W. Trucks, H. B. Schlegel, G. E. Scuseria, 
 M. A. Robb, J. R. Cheeseman, G. Scalmani, V. Barone, B. Mennucci, 
 G. A. Petersson, H. Nakatsuji, M. Caricato, X. Li, H. P. Hratchian, 
 A. F. Izmaylov, J. Bloino, G. Zheng, J. L. Sonnenberg, M. Hada, 
 M. Ehara, K. Toyota, R. Fukuda, J. Hasegawa, M. Ishida, T. Nakajima, 
 Y. Honda, O. Kitao, H. Nakai, T. Vreven, J. A. Montgomery, Jr., 
 J. E. Peralta, F. Ogliaro, M. Bearpark, J. J. Heyd, E. Brothers, 
 K. N. Kudin, V. N. Staroverov, T. Keith, R. Kobayashi, J. Normand, 
 K. Raghavachari, A. Rendell, J. C. Burant, S. S. Iyengar, J. Tomasi, 
 M. Cossi, N. Rega, J. M. Millam, M. Klene, J. E. Knox, J. B. Cross, 
 V. Bakken, C. Adamo, J. Jaramillo, R. Gomperts, R. E. Stratmann, 
 O. Yazyev, A. J. Austin, R. Cammi, C. Pomelli, J. W. Ochterski, 
 R. L. Martin, K. Morokuma, V. G. Zakrzewski, G. A. Voth, 
 P. Salvador, J. J. Dannenberg, S. Dapprich, A. D. Daniels, 
 O. Farkas, J. B. Foresman, J. V. Ortiz, J. Cioslowski, 
 and D. J. Fox, Gaussian, Inc., Wallingford CT, 2010.
 
 ******************************************
 Gaussian 09:  AM64L-G09RevC.01 23-Sep-2011
                19-Sep-2024 
 ******************************************
 %nprocshared=4
 Will use up to    4 processors via shared memory.
 %mem=100mw
 --------------------------------------------------
 # mPW1PW91/6-31+G** nmr scrf=(pcm,solvent=benzene)
 --------------------------------------------------
 1/38=1/1;
 2/12=2,17=6,18=5,40=1/2;
 3/5=1,6=6,7=111,11=2,16=1,25=1,30=1,70=2201,72=12,74=-7/1,2,8,3;
 4//1;
 5/5=2,38=5,53=12/2;
 8/6=1,10=90,11=11/1;
 10/13=100,45=16/2;
 6/7=2,8=2,9=2,10=2,28=1/1;
 99/9=1/99;
 -------
 comment
 -------
 Charge =  0 Multiplicity = 1
 Symbolic Z-Matrix:
 6                    -2.35346   0.06032  -0.39898 
 6                     0.01832  -1.01778  -0.36665 
 6                    -0.25134   1.46422   0.04495 
 6                     0.64937   0.3737   -0.56527 
 6                    -1.6633    1.43152  -0.56198 
 6                    -1.42037  -1.0571   -0.91744 
 6                    -2.85065  -0.18099   1.03667 
 8                     0.0681   -1.34858   1.02922 
 6                     2.14493   0.51189  -0.15921 
 6                     3.02467  -0.55886  -0.82453 
 6                     2.4187    0.5621    1.35409 
 1                    -3.24238   0.05919  -1.04663 
 1                     0.61069  -1.75716  -0.92875 
 1                     0.20193   2.44988  -0.12719 
 1                    -0.30887   1.3322    1.13089 
 1                     0.6327    0.52397  -1.65786 
 1                    -1.59123   1.66682  -1.63434 
 1                    -2.28741   2.21632  -0.1143 
 1                    -1.35383  -0.98621  -2.01264 
 1                    -1.85908  -2.045    -0.70689 
 1                    -3.55948   0.60105   1.33549 
 1                    -3.37358  -1.14349   1.10923 
 1                    -2.02856  -0.19545   1.75656 
 1                    -0.40565  -2.18685   1.1463 
 1                     2.45678   1.4847   -0.57156 
 1                     2.84697  -1.54917  -0.38882 
 1                     2.83892  -0.62547  -1.90424 
 1                     4.0869   -0.32681  -0.68383 
 1                     2.12992  -0.37319   1.84001 
 1                     1.87155   1.37631   1.8411 
 1                     3.48761   0.73281   1.53378 
 
                          Input orientation:                          
 ---------------------------------------------------------------------
 Center     Atomic      Atomic             Coordinates (Angstroms)
 Number     Number       Type             X           Y           Z
 ---------------------------------------------------------------------
      1          6           0       -2.353455    0.060320   -0.398979
      2          6           0        0.018315   -1.017778   -0.366645
      3          6           0       -0.251337    1.464224    0.044945
      4          6           0        0.649371    0.373701   -0.565266
      5          6           0       -1.663296    1.431519   -0.561981
      6          6           0       -1.420366   -1.057102   -0.917437
      7          6           0       -2.850647   -0.180987    1.036669
      8          8           0        0.068100   -1.348579    1.029217
      9          6           0        2.144927    0.511894   -0.159206
     10          6           0        3.024668   -0.558859   -0.824526
     11          6           0        2.418702    0.562102    1.354086
     12          1           0       -3.242378    0.059186   -1.046630
     13          1           0        0.610692   -1.757157   -0.928748
     14          1           0        0.201934    2.449883   -0.127194
     15          1           0       -0.308869    1.332204    1.130889
     16          1           0        0.632696    0.523966   -1.657863
     17          1           0       -1.591229    1.666815   -1.634343
     18          1           0       -2.287409    2.216317   -0.114297
     19          1           0       -1.353828   -0.986208   -2.012644
     20          1           0       -1.859082   -2.045003   -0.706888
     21          1           0       -3.559476    0.601046    1.335491
     22          1           0       -3.373582   -1.143485    1.109235
     23          1           0       -2.028559   -0.195452    1.756556
     24          1           0       -0.405649   -2.186852    1.146303
     25          1           0        2.456779    1.484704   -0.571563
     26          1           0        2.846973   -1.549167   -0.388819
     27          1           0        2.838924   -0.625472   -1.904237
     28          1           0        4.086902   -0.326811   -0.683832
     29          1           0        2.129922   -0.373192    1.840014
     30          1           0        1.871547    1.376311    1.841095
     31          1           0        3.487611    0.732805    1.533780
 ---------------------------------------------------------------------
                    Distance matrix (angstroms):
                    1          2          3          4          5
     1  C    0.000000
     2  C    2.605501   0.000000
     3  C    2.566499   2.530307   0.000000
     4  C    3.023710   1.540745   1.540413   0.000000
     5  C    1.543721   2.977420   1.537224   2.543112   0.000000
     6  C    1.545343   1.541013   2.941070   2.540676   2.525589
     7  C    1.538348   3.301583   3.232128   3.888959   2.562354
     8  O    3.144625   1.435388   2.997114   2.417954   3.641234
     9  C    4.527345   2.627814   2.586637   1.555850   3.938337
    10  C    5.430348   3.075454   3.947284   2.564940   5.099759
    11  C    5.108670   3.349447   3.107536   2.617239   4.592375
    12  H    1.099835   3.500621   3.480229   3.933998   2.147483
    13  H    3.517108   1.101613   3.473970   2.161983   3.933598
    14  H    3.509115   3.480765   1.098458   2.168557   2.169145
    15  H    2.852809   2.805721   1.095451   2.171150   2.170287
    16  H    3.273661   2.102780   2.136622   1.103008   2.701146
    17  H    2.165165   3.377089   2.157860   2.799171   1.100235
    18  H    2.175713   3.979876   2.176371   3.496181   1.098110
    19  H    2.167577   2.143149   3.384343   2.820826   2.836476
    20  H    2.184399   2.166928   3.932527   3.487481   3.485045
    21  H    2.180655   4.280005   3.654363   4.623738   2.808128
    22  H    2.182777   3.701215   4.204911   4.614104   3.514070
    23  H    2.194837   3.061682   2.973660   3.589722   2.855883
    24  H    3.351362   1.958441   3.816695   3.255606   4.194344
    25  H    5.019662   3.500073   2.777480   2.121577   4.120429
    26  H    5.443804   2.878224   4.343754   2.925408   5.408974
    27  H    5.449487   3.236345   4.209020   2.754148   5.128630
    28  H    6.458267   4.139015   4.749657   3.510184   6.014262
    29  H    5.030079   3.121493   3.502680   2.921515   4.838912
    30  H    4.959880   3.747032   2.782179   2.879152   4.274686
    31  H    6.189172   4.325757   4.090396   3.548317   5.604664
                    6          7          8          9         10
     6  C    0.000000
     7  C    2.575230   0.000000
     8  O    2.467783   3.143630   0.000000
     9  C    3.968372   5.183238   3.030993   0.000000
    10  C    4.473836   6.174638   3.577893   1.537240   0.000000
    11  C    4.745533   5.330945   3.046567   1.538677   2.523905
    12  H    2.140682   2.133371   4.153337   5.478642   6.301363
    13  H    2.148349   4.281126   2.072431   2.845112   2.697047
    14  H    3.944019   4.194557   3.972847   2.744458   4.184092
    15  H    3.337641   2.959605   2.709066   2.891084   4.302585
    16  H    2.695008   4.459948   3.323491   2.129075   2.754722
    17  H    2.821856   3.483506   4.352071   4.179561   5.188057
    18  H    3.480240   2.718276   4.423181   4.748966   6.035246
    19  H    1.099514   3.491011   3.377293   4.233300   4.556915
    20  H    1.101250   2.738202   2.685721   4.782234   5.106219
    21  H    3.521496   1.096954   4.129667   5.897650   7.025810
    22  H    2.816010   1.097784   3.448716   5.899421   6.709607
    23  H    2.874470   1.092829   2.500940   4.646339   5.685873
    24  H    2.562227   3.164416   0.969974   3.936118   4.278037
    25  H    4.648942   5.790484   4.036803   1.101658   2.136033
    26  H    4.328019   6.030490   3.126211   2.189421   1.096415
    27  H    4.393362   6.420102   4.099451   2.195533   1.097595
    28  H    5.560386   7.149194   4.486571   2.179432   1.096349
    29  H    4.547067   5.048601   2.420719   2.186432   2.816881
    30  H    4.936364   5.037003   3.366986   2.196169   3.490001
    31  H    5.770656   6.423056   4.034823   2.172051   2.728428
                   11         12         13         14         15
    11  C    0.000000
    12  H    6.169618   0.000000
    13  H    3.722794   4.261355   0.000000
    14  H    3.266798   4.292328   4.302181   0.000000
    15  H    2.842977   3.868803   3.825160   1.758664   0.000000
    16  H    3.501872   3.950421   2.394914   2.497531   3.052365
    17  H    5.121586   2.378271   4.131574   2.469844   3.066418
    18  H    5.200005   2.536617   4.985059   2.500310   2.499353
    19  H    5.288111   2.364879   2.372453   4.216875   4.043362
    20  H    5.417015   2.540973   2.496370   4.978738   4.145614
    21  H    5.978334   2.463466   5.298887   4.439127   3.338098
    22  H    6.043139   2.472122   4.517124   5.217793   3.939793
    23  H    4.529238   3.065298   4.076202   3.939722   2.383805
    24  H    3.946756   4.230919   2.350196   4.846675   3.520420
    25  H    2.135596   5.893910   3.747703   2.492661   3.251216
    26  H    2.771027   6.332433   2.309921   4.801779   4.535543
    27  H    3.493363   6.179521   2.682780   4.423732   4.790938
    28  H    2.779598   7.348399   3.766950   4.807583   5.036700
    29  H    1.092838   6.114023   3.448110   3.944211   3.059238
    30  H    1.095214   6.018804   4.368113   2.795412   2.293589
    31  H    1.097267   7.239132   4.532176   4.062372   3.864565
                   16         17         18         19         20
    16  H    0.000000
    17  H    2.500500   0.000000
    18  H    3.711288   1.759875   0.000000
    19  H    2.520471   2.690353   3.838159   0.000000
    20  H    3.703095   3.835298   4.323595   1.755371   0.000000
    21  H    5.151739   3.718840   2.515778   4.312107   3.750230
    22  H    5.146600   4.312979   3.736987   3.721595   2.530760
    23  H    4.388405   3.893262   3.063286   3.909914   3.085145
    24  H    4.036092   4.897789   4.951568   3.509920   2.359429
    25  H    2.330310   4.189157   4.821999   4.764750   5.577078
    26  H    3.288066   5.620632   6.373077   4.538773   4.742781
    27  H    2.499870   4.995366   6.128535   4.209638   5.051730
    28  H    3.688373   6.092552   6.886488   5.639334   6.189301
    29  H    3.909184   5.484501   5.480666   5.230227   5.019344
    30  H    3.808405   4.914660   4.671839   5.553003   5.667027
    31  H    4.287276   6.058382   6.186099   6.242729   6.428370
                   21         22         23         24         25
    21  H    0.000000
    22  H    1.768937   0.000000
    23  H    1.776348   1.768298   0.000000
    24  H    4.213644   3.146206   2.640439   0.000000
    25  H    6.372835   6.612531   5.325535   4.962346   0.000000
    26  H    6.974185   6.411244   5.495998   3.652779   3.064314
    27  H    7.275968   6.924203   6.105630   4.719211   2.524856
    28  H    7.962768   7.716273   6.585713   5.195398   2.439568
    29  H    5.794215   5.604993   4.163114   3.193700   3.061751
    30  H    5.509327   5.864842   4.205759   4.285381   2.484988
    31  H    7.051107   7.125775   5.598162   4.881804   2.461795
                   26         27         28         29         30
    26  H    0.000000
    27  H    1.774759   0.000000
    28  H    1.765959   1.770886   0.000000
    29  H    2.620072   3.819129   3.194013   0.000000
    30  H    3.805574   4.355510   3.766122   1.768479   0.000000
    31  H    3.051917   3.753088   2.529770   1.777731   1.766410
                   31
    31  H    0.000000
 Stoichiometry    C10H20O
 Framework group  C1[X(C10H20O)]
 Deg. of freedom    87
 Full point group                 C1      NOp   1
 Largest Abelian subgroup         C1      NOp   1
 Largest concise Abelian subgroup C1      NOp   1
                         Standard orientation:                         
 ---------------------------------------------------------------------
 Center     Atomic      Atomic             Coordinates (Angstroms)
 Number     Number       Type             X           Y           Z
 ---------------------------------------------------------------------
      1          6           0       -2.353455    0.060320   -0.398979
      2          6           0        0.018315   -1.017778   -0.366645
      3          6           0       -0.251337    1.464224    0.044945
      4          6           0        0.649371    0.373701   -0.565266
      5          6           0       -1.663296    1.431519   -0.561981
      6          6           0       -1.420366   -1.057102   -0.917437
      7          6           0       -2.850647   -0.180987    1.036669
      8          8           0        0.068100   -1.348579    1.029217
      9          6           0        2.144927    0.511894   -0.159206
     10          6           0        3.024668   -0.558859   -0.824526
     11          6           0        2.418702    0.562102    1.354086
     12          1           0       -3.242378    0.059186   -1.046630
     13          1           0        0.610692   -1.757157   -0.928748
     14          1           0        0.201934    2.449883   -0.127194
     15          1           0       -0.308869    1.332204    1.130889
     16          1           0        0.632696    0.523966   -1.657863
     17          1           0       -1.591229    1.666815   -1.634343
     18          1           0       -2.287409    2.216317   -0.114297
     19          1           0       -1.353828   -0.986208   -2.012644
     20          1           0       -1.859082   -2.045003   -0.706888
     21          1           0       -3.559476    0.601046    1.335491
     22          1           0       -3.373582   -1.143485    1.109235
     23          1           0       -2.028559   -0.195452    1.756556
     24          1           0       -0.405649   -2.186852    1.146303
     25          1           0        2.456779    1.484704   -0.571563
     26          1           0        2.846973   -1.549167   -0.388819
     27          1           0        2.838924   -0.625472   -1.904237
     28          1           0        4.086902   -0.326811   -0.683832
     29          1           0        2.129922   -0.373192    1.840014
     30          1           0        1.871547    1.376311    1.841095
     31          1           0        3.487611    0.732805    1.533780
 ---------------------------------------------------------------------
 Rotational constants (GHZ):      1.8534738      0.7311540      0.6904154
 Standard basis: 6-31+G(d,p) (6D, 7F)
 There are   309 symmetry adapted basis functions of A   symmetry.
 Integral buffers will be    131072 words long.
 Raffenetti 2 integral format.
 Two-electron integral symmetry is turned on.
   309 basis functions,   492 primitive gaussians,   309 cartesian basis functions
    44 alpha electrons       44 beta electrons
       nuclear repulsion energy       702.8383073748 Hartrees.
 NAtoms=   31 NActive=   31 NUniq=   31 SFac= 1.00D+00 NAtFMM=   60 NAOKFM=F Big=F
 ------------------------------------------------------------------------------
 Polarizable Continuum Model (PCM)
 =================================
 Model                : PCM.
 Atomic radii         : UFF (Universal Force Field).
 Polarization charges : Total charges.
 Charge compensation  : None.
 Solution method      : Matrix inversion.
 Cavity type          : Scaled VdW (van der Waals Surface) (Alpha=1.100).
 Cavity algorithm     : GePol (No added spheres)
                        Default sphere list used, NSphG=   31.
                        Lebedev-Laikov grids with approx.  5.0 points / Ang**2.
                        Smoothing algorithm: Karplus/York (Gamma=1.0000).
                        Polarization charges: spherical gaussians, with
                                              point-specific exponents (IZeta= 3).
                        Self-potential: point-specific (ISelfS= 7).
                        Self-field    : sphere-specific E.n sum rule (ISelfD= 2).
 Solvent              : Benzene, Eps=   2.270600 Eps(inf)=   2.253301
 ------------------------------------------------------------------------------
 One-electron integrals computed using PRISM.
 NBasis=   309 RedAO= T  NBF=   309
 NBsUse=   309 1.00D-06 NBFU=   309
 Harris functional with IExCor=  908 diagonalized for initial guess.
 ExpMin= 4.38D-02 ExpMax= 5.48D+03 ExpMxC= 8.25D+02 IAcc=2 IRadAn=         4 AccDes= 0.00D+00
 HarFok:  IExCor=  908 AccDes= 0.00D+00 IRadAn=         4 IDoV= 1
 ScaDFX=  1.000000  1.000000  1.000000  1.000000
 FoFCou: FMM=F IPFlag=           0 FMFlag=      100000 FMFlg1=           0
         NFxFlg=           0 DoJE=T BraDBF=F KetDBF=T FulRan=T
         Omega=  0.000000  0.000000  1.000000  0.000000  0.000000 ICntrl=     500 IOpCl=  0
         NMat0=    1 NMatS0=    1 NMatT0=    0 NMatD0=    1 NMtDS0=    0 NMtDT0=    0
         I1Cent=           4 NGrid=           0.
 Petite list used in FoFCou.
 Initial guess orbital symmetries:
       Occupied  (A) (A) (A) (A) (A) (A) (A) (A) (A) (A) (A) (A)
                 (A) (A) (A) (A) (A) (A) (A) (A) (A) (A) (A) (A)
                 (A) (A) (A) (A) (A) (A) (A) (A) (A) (A) (A) (A)
                 (A) (A) (A) (A) (A) (A) (A) (A)
       Virtual   (A) (A) (A) (A) (A) (A) (A) (A) (A) (A) (A) (A)
                 (A) (A) (A) (A) (A) (A) (A) (A) (A) (A) (A) (A)
                 (A) (A) (A) (A) (A) (A) (A) (A) (A) (A) (A) (A)
                 (A) (A) (A) (A) (A) (A) (A) (A) (A) (A) (A) (A)
                 (A) (A) (A) (A) (A) (A) (A) (A) (A) (A) (A) (A)
                 (A) (A) (A) (A) (A) (A) (A) (A) (A) (A) (A) (A)
                 (A) (A) (A) (A) (A) (A) (A) (A) (A) (A) (A) (A)
                 (A) (A) (A) (A) (A) (A) (A) (A) (A) (A) (A) (A)
                 (A) (A) (A) (A) (A) (A) (A) (A) (A) (A) (A) (A)
                 (A) (A) (A) (A) (A) (A) (A) (A) (A) (A) (A) (A)
                 (A) (A) (A) (A) (A) (A) (A) (A) (A) (A) (A) (A)
                 (A) (A) (A) (A) (A) (A) (A) (A) (A) (A) (A) (A)
                 (A) (A) (A) (A) (A) (A) (A) (A) (A) (A) (A) (A)
                 (A) (A) (A) (A) (A) (A) (A) (A) (A) (A) (A) (A)
                 (A) (A) (A) (A) (A) (A) (A) (A) (A) (A) (A) (A)
                 (A) (A) (A) (A) (A) (A) (A) (A) (A) (A) (A) (A)
                 (A) (A) (A) (A) (A) (A) (A) (A) (A) (A) (A) (A)
                 (A) (A) (A) (A) (A) (A) (A) (A) (A) (A) (A) (A)
                 (A) (A) (A) (A) (A) (A) (A) (A) (A) (A) (A) (A)
                 (A) (A) (A) (A) (A) (A) (A) (A) (A) (A) (A) (A)
                 (A) (A) (A) (A) (A) (A) (A) (A) (A) (A) (A) (A)
                 (A) (A) (A) (A) (A) (A) (A) (A) (A) (A) (A) (A)
                 (A)
 The electronic state of the initial guess is 1-A.
 Requested convergence on RMS density matrix=1.00D-08 within 128 cycles.
 Requested convergence on MAX density matrix=1.00D-06.
 Requested convergence on             energy=1.00D-06.
 No special actions if energy rises.
 Error on total polarization charges =  0.00929
 SCF Done:  E(RmPW1PW91) =  -468.277895506     A.U. after   13 cycles
             Convg  =    0.2399D-08             -V/T =  2.0099
 Range of M.O.s used for correlation:     1   309
 NBasis=   309 NAE=    44 NBE=    44 NFC=     0 NFV=     0
 NROrb=    309 NOA=    44 NOB=    44 NVA=   265 NVB=   265

 **** Warning!!: The largest alpha MO coefficient is  0.82388338D+02

 NEqPCM:  Using equilibrium solvation (IEInf=0, Eps=   2.2706, EpsInf=   2.2533)
          Differentiating once with respect to magnetic field using GIAOs.
          Electric field/nuclear overlap derivatives assumed to be zero.
 FoFCou: FMM=F IPFlag=           0 FMFlag=    10101102 FMFlg1=           0
         NFxFlg=    40000000 DoJE=F BraDBF=F KetDBF=T FulRan=T
         Omega=  0.000000  0.000000  1.000000  0.000000  0.000000 ICntrl=    6100 IOpCl=  0
         NMat0=    1 NMatS0=    1 NMatT0=    0 NMatD0=    1 NMtDS0=    0 NMtDT0=    0
         I1Cent=           7 NGrid=        1892.
 Symmetry not used in FoFCou.
          There are     3 degrees of freedom in the 1st order CPHF.  IDoFFX=0.
      3 vectors produced by pass  0 Test12= 3.89D-13 3.33D-08 XBig12= 3.18D+01 1.10D+00.
 AX will form     3 AO Fock derivatives at one time.
      3 vectors produced by pass  1 Test12= 3.89D-13 3.33D-08 XBig12= 6.76D-02 4.99D-02.
      3 vectors produced by pass  2 Test12= 3.89D-13 3.33D-08 XBig12= 1.69D-04 3.82D-03.
      3 vectors produced by pass  3 Test12= 3.89D-13 3.33D-08 XBig12= 8.83D-07 1.87D-04.
      3 vectors produced by pass  4 Test12= 3.89D-13 3.33D-08 XBig12= 1.74D-09 8.13D-06.
      3 vectors produced by pass  5 Test12= 3.89D-13 3.33D-08 XBig12= 3.99D-12 3.58D-07.
 Inverted reduced A of dimension    18 with in-core refinement.
 Calculating GIAO nuclear magnetic shielding tensors.
 SCF GIAO Magnetic shielding tensor (ppm):
      1  C    Isotropic =   164.7210   Anisotropy =     2.1624
   XX=   164.2508   YX=    -0.2752   ZX=    -1.5062
   XY=     0.5335   YY=   164.0623   ZY=     1.7347
   XZ=     2.3760   YZ=    -0.4562   ZZ=   165.8500
   Eigenvalues:   163.8569   164.1436   166.1626
      2  C    Isotropic =   125.1515   Anisotropy =    57.2185
   XX=   112.4794   YX=     2.9292   ZX=     2.2974
   XY=     4.6779   YY=   103.3689   ZY=   -16.7152
   XZ=     0.5369   YZ=   -13.0123   ZZ=   159.6062
   Eigenvalues:    98.5170   113.6403   163.2972
      3  C    Isotropic =   171.7752   Anisotropy =    19.4899
   XX=   182.4311   YX=    -3.2026   ZX=     2.2294
   XY=    -4.9367   YY=   177.6114   ZY=     3.1020
   XZ=    -2.9565   YZ=    -1.4660   ZZ=   155.2831
   Eigenvalues:   155.2515   175.3056   184.7685
      4  C    Isotropic =   147.7032   Anisotropy =    15.2472
   XX=   151.7558   YX=    -4.8274   ZX=    -0.4158
   XY=    -4.8037   YY=   137.6117   ZY=    -3.1623
   XZ=     8.7492   YZ=     0.5272   ZZ=   153.7420
   Eigenvalues:   136.1278   149.1137   157.8680
      5  C    Isotropic =   160.9913   Anisotropy =    11.6158
   XX=   163.4095   YX=     3.2092   ZX=    -3.0227
   XY=     5.6304   YY=   163.0142   ZY=    -5.6258
   XZ=    -1.8295   YZ=     0.1144   ZZ=   156.5502
   Eigenvalues:   155.4249   158.8138   168.7351
      6  C    Isotropic =   152.9888   Anisotropy =    13.3527
   XX=   161.7166   YX=    -1.4708   ZX=     1.7939
   XY=    -1.1798   YY=   148.0043   ZY=    -6.2378
   XZ=    -1.3693   YZ=    -4.2388   ZZ=   149.2456
   Eigenvalues:   143.3105   153.7653   161.8906
      7  C    Isotropic =   173.9118   Anisotropy =    32.6375
   XX=   164.2741   YX=    -3.1787   ZX=   -16.3965
   XY=    -1.7879   YY=   172.8680   ZY=     0.0253
   XZ=   -20.8797   YZ=    -1.9129   ZZ=   184.5933
   Eigenvalues:   152.8640   173.2013   195.6702
      8  O    Isotropic =   272.3783   Anisotropy =    70.1156
   XX=   270.1781   YX=    29.3317   ZX=     5.6599
   XY=    31.4042   YY=   295.9604   ZY=   -34.7622
   XZ=    13.6410   YZ=   -11.0387   ZZ=   250.9964
   Eigenvalues:   228.7551   269.2578   319.1220
      9  C    Isotropic =   159.6491   Anisotropy =    18.1176
   XX=   171.6343   YX=    -0.3249   ZX=    -1.1715
   XY=     0.4902   YY=   156.0858   ZY=     1.5035
   XZ=     3.9145   YZ=     0.5099   ZZ=   151.2272
   Eigenvalues:   150.9414   156.2784   171.7275
     10  C    Isotropic =   174.6356   Anisotropy =    32.5263
   XX=   173.3184   YX=   -13.2133   ZX=    -8.4801
   XY=   -14.6511   YY=   170.6086   ZY=    14.1697
   XZ=    -3.8181   YZ=    10.2457   ZZ=   179.9797
   Eigenvalues:   156.6139   170.9731   196.3198
     11  C    Isotropic =   177.4866   Anisotropy =    25.1713
   XX=   171.4217   YX=     1.2752   ZX=     6.6171
   XY=     2.0577   YY=   167.8789   ZY=    -0.0008
   XZ=     2.0276   YZ=     4.8964   ZZ=   193.1590
   Eigenvalues:   167.1961   170.9961   194.2674
     12  H    Isotropic =    29.7831   Anisotropy =    10.0935
   XX=    33.5634   YX=     0.1474   ZX=     4.0738
   XY=     0.2367   YY=    25.7269   ZY=    -0.2122
   XZ=     4.6498   YZ=    -0.1452   ZZ=    30.0589
   Eigenvalues:    25.6809    27.1563    36.5121
     13  H    Isotropic =    27.2554   Anisotropy =     5.1613
   XX=    28.7173   YX=    -1.1626   ZX=    -0.7683
   XY=    -1.0628   YY=    26.0827   ZY=     1.3321
   XZ=    -2.3032   YZ=     3.3042   ZZ=    26.9661
   Eigenvalues:    24.1606    26.9093    30.6963
     14  H    Isotropic =    30.6043   Anisotropy =     8.9545
   XX=    31.0586   YX=     1.9871   ZX=     0.6078
   XY=     1.9218   YY=    35.8790   ZY=    -0.2580
   XZ=     1.0218   YZ=    -0.6473   ZZ=    24.8751
   Eigenvalues:    24.7234    30.5155    36.5739
     15  H    Isotropic =    29.2694   Anisotropy =     4.3867
   XX=    30.0482   YX=    -0.6042   ZX=     0.8709
   XY=     0.0550   YY=    26.1377   ZY=     1.8437
   XZ=     0.3514   YZ=     1.4063   ZZ=    31.6225
   Eigenvalues:    25.6506    29.9638    32.1939
     16  H    Isotropic =    30.3030   Anisotropy =     4.9736
   XX=    31.3361   YX=    -0.0221   ZX=    -0.2890
   XY=    -0.2068   YY=    26.4650   ZY=    -1.3913
   XZ=    -0.6139   YZ=    -2.1255   ZZ=    33.1080
   Eigenvalues:    26.0192    31.2712    33.6188
     17  H    Isotropic =    29.9454   Anisotropy =     8.8867
   XX=    28.3323   YX=    -0.0329   ZX=     1.9047
   XY=    -0.0011   YY=    29.1346   ZY=    -4.7901
   XZ=     1.6285   YZ=    -4.3207   ZZ=    32.3694
   Eigenvalues:    25.5285    28.4379    35.8699
     18  H    Isotropic =    29.9441   Anisotropy =     9.5388
   XX=    31.3980   YX=    -3.9103   ZX=    -0.7926
   XY=    -3.9258   YY=    32.9862   ZY=     1.0294
   XZ=    -0.7259   YZ=     0.5962   ZZ=    25.4480
   Eigenvalues:    25.3327    28.1962    36.3033
     19  H    Isotropic =    29.8712   Anisotropy =     8.2285
   XX=    28.2648   YX=     0.2043   ZX=     1.2653
   XY=    -0.2072   YY=    27.1548   ZY=     3.0056
   XZ=     1.2336   YZ=     2.5565   ZZ=    34.1939
   Eigenvalues:    26.1043    28.1524    35.3568
     20  H    Isotropic =    30.1690   Anisotropy =     7.7281
   XX=    29.8683   YX=     2.2737   ZX=    -0.0842
   XY=     1.9872   YY=    34.0625   ZY=     1.4831
   XZ=     0.6689   YZ=     2.1458   ZZ=    26.5761
   Eigenvalues:    26.1480    29.0379    35.3210
     21  H    Isotropic =    30.7636   Anisotropy =    11.0040
   XX=    33.0100   YX=    -3.7003   ZX=    -4.4086
   XY=    -3.3283   YY=    29.6563   ZY=     1.2049
   XZ=    -4.8344   YZ=     2.5606   ZZ=    29.6245
   Eigenvalues:    26.2737    27.9175    38.0996
     22  H    Isotropic =    30.7019   Anisotropy =     9.6890
   XX=    31.3735   YX=     3.9113   ZX=    -2.9109
   XY=     3.8724   YY=    32.1529   ZY=    -1.3067
   XZ=    -3.1701   YZ=    -2.7778   ZZ=    28.5793
   Eigenvalues:    26.5772    28.3673    37.1612
     23  H    Isotropic =    29.3855   Anisotropy =     4.4231
   XX=    31.6210   YX=    -0.7411   ZX=    -0.0878
   XY=    -0.5216   YY=    24.7686   ZY=    -1.1795
   XZ=     1.0583   YZ=    -0.5399   ZZ=    31.7670
   Eigenvalues:    24.6181    31.2042    32.3343
     24  H    Isotropic =    31.2068   Anisotropy =    16.8938
   XX=    27.8495   YX=     6.4755   ZX=    -0.1592
   XY=     6.5099   YY=    37.5385   ZY=    -4.4978
   XZ=    -1.1424   YZ=    -5.7112   ZZ=    28.2325
   Eigenvalues:    23.6768    27.4743    42.4694
     25  H    Isotropic =    29.8877   Anisotropy =     7.6971
   XX=    29.7700   YX=     2.6159   ZX=    -1.3729
   XY=     2.1079   YY=    32.1897   ZY=    -2.8889
   XZ=    -1.4802   YZ=    -2.8240   ZZ=    27.7033
   Eigenvalues:    26.2889    28.3550    35.0190
     26  H    Isotropic =    30.4420   Anisotropy =     7.0191
   XX=    30.1604   YX=    -1.7759   ZX=    -0.6649
   XY=    -1.3958   YY=    34.5888   ZY=    -0.9086
   XZ=    -1.0809   YZ=    -0.5761   ZZ=    26.5768
   Eigenvalues:    26.2279    29.9767    35.1214
     27  H    Isotropic =    30.7433   Anisotropy =     9.7530
   XX=    29.3903   YX=    -1.4072   ZX=    -2.4336
   XY=    -0.8924   YY=    26.8941   ZY=     2.9188
   XZ=    -1.7072   YZ=     2.0177   ZZ=    35.9453
   Eigenvalues:    26.1330    28.8515    37.2453
     28  H    Isotropic =    30.5318   Anisotropy =    10.5865
   XX=    37.4098   YX=    -0.0109   ZX=    -1.0332
   XY=    -0.9430   YY=    26.8482   ZY=     0.7456
   XZ=    -1.4157   YZ=     1.2500   ZZ=    27.3374
   Eigenvalues:    26.0518    27.9541    37.5895
     29  H    Isotropic =    30.0264   Anisotropy =     6.1815
   XX=    29.1924   YX=     2.4353   ZX=     1.3214
   XY=     2.7881   YY=    29.8174   ZY=    -3.1450
   XZ=     1.3208   YZ=    -3.9222   ZZ=    31.0695
   Eigenvalues:    24.9279    31.0040    34.1474
     30  H    Isotropic =    30.3621   Anisotropy =     7.7504
   XX=    29.8896   YX=    -1.6653   ZX=     1.5020
   XY=    -2.0373   YY=    29.4684   ZY=     4.1601
   XZ=    -0.0295   YZ=     5.3123   ZZ=    31.7283
   Eigenvalues:    24.9818    30.5755    35.5290
     31  H    Isotropic =    30.9652   Anisotropy =    10.8677
   XX=    35.5225   YX=     1.9336   ZX=     3.3618
   XY=     2.1978   YY=    26.9808   ZY=     1.7268
   XZ=     4.3707   YZ=     1.6600   ZZ=    30.3924
   Eigenvalues:    26.2473    28.4380    38.2104
 End of Minotr Frequency-dependent properties file   721 does not exist.
 End of Minotr Frequency-dependent properties file   722 does not exist.

 **********************************************************************

            Population analysis using the SCF density.

 **********************************************************************

 Orbital symmetries:
       Occupied  (A) (A) (A) (A) (A) (A) (A) (A) (A) (A) (A) (A)
                 (A) (A) (A) (A) (A) (A) (A) (A) (A) (A) (A) (A)
                 (A) (A) (A) (A) (A) (A) (A) (A) (A) (A) (A) (A)
                 (A) (A) (A) (A) (A) (A) (A) (A)
       Virtual   (A) (A) (A) (A) (A) (A) (A) (A) (A) (A) (A) (A)
                 (A) (A) (A) (A) (A) (A) (A) (A) (A) (A) (A) (A)
                 (A) (A) (A) (A) (A) (A) (A) (A) (A) (A) (A) (A)
                 (A) (A) (A) (A) (A) (A) (A) (A) (A) (A) (A) (A)
                 (A) (A) (A) (A) (A) (A) (A) (A) (A) (A) (A) (A)
                 (A) (A) (A) (A) (A) (A) (A) (A) (A) (A) (A) (A)
                 (A) (A) (A) (A) (A) (A) (A) (A) (A) (A) (A) (A)
                 (A) (A) (A) (A) (A) (A) (A) (A) (A) (A) (A) (A)
                 (A) (A) (A) (A) (A) (A) (A) (A) (A) (A) (A) (A)
                 (A) (A) (A) (A) (A) (A) (A) (A) (A) (A) (A) (A)
                 (A) (A) (A) (A) (A) (A) (A) (A) (A) (A) (A) (A)
                 (A) (A) (A) (A) (A) (A) (A) (A) (A) (A) (A) (A)
                 (A) (A) (A) (A) (A) (A) (A) (A) (A) (A) (A) (A)
                 (A) (A) (A) (A) (A) (A) (A) (A) (A) (A) (A) (A)
                 (A) (A) (A) (A) (A) (A) (A) (A) (A) (A) (A) (A)
                 (A) (A) (A) (A) (A) (A) (A) (A) (A) (A) (A) (A)
                 (A) (A) (A) (A) (A) (A) (A) (A) (A) (A) (A) (A)
                 (A) (A) (A) (A) (A) (A) (A) (A) (A) (A) (A) (A)
                 (A) (A) (A) (A) (A) (A) (A) (A) (A) (A) (A) (A)
                 (A) (A) (A) (A) (A) (A) (A) (A) (A) (A) (A) (A)
                 (A) (A) (A) (A) (A) (A) (A) (A) (A) (A) (A) (A)
                 (A) (A) (A) (A) (A) (A) (A) (A) (A) (A) (A) (A)
                 (A)
 The electronic state is 1-A.
 Alpha  occ. eigenvalues --  -19.24236 -10.29386 -10.24899 -10.24710 -10.24570
 Alpha  occ. eigenvalues --  -10.24302 -10.23733 -10.23416 -10.22920 -10.22701
 Alpha  occ. eigenvalues --  -10.22013  -1.04794  -0.85585  -0.81727  -0.76095
 Alpha  occ. eigenvalues --   -0.75482  -0.69459  -0.69348  -0.63104  -0.62349
 Alpha  occ. eigenvalues --   -0.57108  -0.55037  -0.50653  -0.49149  -0.47225
 Alpha  occ. eigenvalues --   -0.45474  -0.44814  -0.43052  -0.42855  -0.41213
 Alpha  occ. eigenvalues --   -0.40182  -0.39554  -0.38522  -0.38325  -0.36549
 Alpha  occ. eigenvalues --   -0.35954  -0.35439  -0.34414  -0.33284  -0.32230
 Alpha  occ. eigenvalues --   -0.31727  -0.31234  -0.29393  -0.27354
 Alpha virt. eigenvalues --    0.00207   0.01951   0.02064   0.02458   0.03874
 Alpha virt. eigenvalues --    0.04260   0.04488   0.05038   0.05168   0.06836
 Alpha virt. eigenvalues --    0.07429   0.07783   0.07937   0.08603   0.09215
 Alpha virt. eigenvalues --    0.09955   0.10523   0.11280   0.11696   0.11952
 Alpha virt. eigenvalues --    0.12225   0.12585   0.13218   0.14360   0.14799
 Alpha virt. eigenvalues --    0.15306   0.15880   0.16860   0.17317   0.17394
 Alpha virt. eigenvalues --    0.18537   0.18776   0.19228   0.19544   0.20010
 Alpha virt. eigenvalues --    0.20454   0.20558   0.21231   0.22103   0.22297
 Alpha virt. eigenvalues --    0.22756   0.23201   0.23869   0.24502   0.24687
 Alpha virt. eigenvalues --    0.25431   0.25662   0.26324   0.26487   0.27486
 Alpha virt. eigenvalues --    0.27809   0.28540   0.29147   0.29985   0.30530
 Alpha virt. eigenvalues --    0.31174   0.31718   0.31832   0.32991   0.33609
 Alpha virt. eigenvalues --    0.34123   0.34923   0.35780   0.36135   0.37261
 Alpha virt. eigenvalues --    0.37636   0.39193   0.39953   0.41066   0.42384
 Alpha virt. eigenvalues --    0.44070   0.44826   0.46210   0.50850   0.54639
 Alpha virt. eigenvalues --    0.63234   0.64452   0.65960   0.67060   0.67992
 Alpha virt. eigenvalues --    0.68443   0.70808   0.71456   0.72652   0.73163
 Alpha virt. eigenvalues --    0.73802   0.74027   0.75837   0.76026   0.77871
 Alpha virt. eigenvalues --    0.80272   0.81028   0.81918   0.82927   0.83674
 Alpha virt. eigenvalues --    0.85307   0.87166   0.88998   0.91368   0.94922
 Alpha virt. eigenvalues --    0.95918   0.96128   0.99558   0.99746   1.00894
 Alpha virt. eigenvalues --    1.01523   1.02421   1.02838   1.04237   1.05494
 Alpha virt. eigenvalues --    1.06368   1.08590   1.09493   1.10257   1.11831
 Alpha virt. eigenvalues --    1.12824   1.13953   1.14802   1.15804   1.17108
 Alpha virt. eigenvalues --    1.17426   1.18350   1.19199   1.21243   1.23753
 Alpha virt. eigenvalues --    1.25232   1.26310   1.28315   1.31231   1.33935
 Alpha virt. eigenvalues --    1.37707   1.39727   1.41204   1.42224   1.46692
 Alpha virt. eigenvalues --    1.48171   1.50415   1.53038   1.55911   1.58623
 Alpha virt. eigenvalues --    1.59401   1.62111   1.63187   1.64513   1.69122
 Alpha virt. eigenvalues --    1.72013   1.73076   1.75892   1.77108   1.79896
 Alpha virt. eigenvalues --    1.81181   1.85853   1.87104   1.87522   1.87848
 Alpha virt. eigenvalues --    1.89026   1.90868   1.91256   1.93335   1.94855
 Alpha virt. eigenvalues --    1.96299   1.96736   1.98981   2.01821   2.04207
 Alpha virt. eigenvalues --    2.05110   2.06989   2.07970   2.08506   2.09949
 Alpha virt. eigenvalues --    2.10344   2.12552   2.14997   2.15538   2.15928
 Alpha virt. eigenvalues --    2.17026   2.17443   2.19066   2.19712   2.20853
 Alpha virt. eigenvalues --    2.21243   2.22244   2.24613   2.29589   2.29960
 Alpha virt. eigenvalues --    2.32849   2.34582   2.36847   2.37464   2.38840
 Alpha virt. eigenvalues --    2.39756   2.40295   2.42487   2.43592   2.44941
 Alpha virt. eigenvalues --    2.47735   2.49866   2.52461   2.54389   2.58063
 Alpha virt. eigenvalues --    2.58431   2.59756   2.62800   2.64232   2.65798
 Alpha virt. eigenvalues --    2.67925   2.68234   2.70193   2.71622   2.72693
 Alpha virt. eigenvalues --    2.73807   2.74571   2.74996   2.77089   2.77785
 Alpha virt. eigenvalues --    2.78502   2.81095   2.83181   2.84519   2.85731
 Alpha virt. eigenvalues --    2.86957   2.87818   2.91344   2.91690   2.93711
 Alpha virt. eigenvalues --    2.94213   2.94730   2.96020   2.97016   2.98164
 Alpha virt. eigenvalues --    3.00487   3.03664   3.08059   3.12138   3.30675
 Alpha virt. eigenvalues --    3.30832   3.32053   3.36647   3.36906   3.38829
 Alpha virt. eigenvalues --    3.41737   3.44785   3.48758   3.49649   3.50319
 Alpha virt. eigenvalues --    3.51934   3.53543   3.54296   3.55875   3.56722
 Alpha virt. eigenvalues --    3.57531   3.59589   3.61517   3.63975   4.36747
 Alpha virt. eigenvalues --    4.45021   4.46739   4.54830   4.56673   4.63491
 Alpha virt. eigenvalues --    4.69880   4.75623   4.82609   4.90494   4.96042
          Condensed to atoms (all electrons):
              1          2          3          4          5          6
     1  C    6.418639  -0.099056  -0.289663  -0.247361  -0.030554  -0.139366
     2  C   -0.099056   6.428134  -0.574476  -0.270028   0.196816  -0.231589
     3  C   -0.289663  -0.574476   6.707952  -0.625316  -0.079085   0.130291
     4  C   -0.247361  -0.270028  -0.625316   8.159094   0.104016   0.007429
     5  C   -0.030554   0.196816  -0.079085   0.104016   5.852255  -0.022695
     6  C   -0.139366  -0.231589   0.130291   0.007429  -0.022695   6.258014
     7  C    0.015628  -0.086909  -0.010265   0.043658  -0.048834   0.024355
     8  O    0.043411   0.120545   0.016441  -0.264922  -0.069407   0.009900
     9  C    0.115826   0.240027   0.476522  -1.526419  -0.099121  -0.108674
    10  C   -0.008887  -0.054026  -0.109286   0.378414  -0.005394   0.014483
    11  C   -0.006827  -0.041971   0.014383  -0.039403  -0.020643  -0.004697
    12  H    0.269107   0.023454   0.032558  -0.000680  -0.004982  -0.014660
    13  H    0.042077   0.210797   0.015753   0.002178  -0.016337   0.065005
    14  H    0.039679   0.055280   0.286944  -0.068980   0.024296  -0.007229
    15  H    0.012004  -0.008263   0.461411  -0.106043  -0.052166  -0.024531
    16  H    0.021772  -0.007290   0.005287   0.248234  -0.036202  -0.038622
    17  H   -0.001569  -0.005845  -0.052081   0.021603   0.375026  -0.041665
    18  H   -0.084776  -0.015785  -0.075783   0.036019   0.428315   0.040404
    19  H   -0.005492  -0.053069   0.005133   0.016595  -0.036903   0.359441
    20  H   -0.090178  -0.020037  -0.013151   0.007299   0.041348   0.397700
    21  H   -0.081601  -0.012435   0.007292  -0.000781  -0.006107   0.031726
    22  H   -0.085302   0.002033  -0.008734  -0.006589   0.027068   0.008313
    23  H   -0.071537   0.012050  -0.001806   0.013579  -0.012656  -0.018311
    24  H   -0.030781   0.027722  -0.008037   0.064351   0.015036  -0.032011
    25  H    0.000164   0.006287  -0.033710   0.003290   0.005925  -0.004364
    26  H   -0.000192   0.000317  -0.006945   0.019332   0.000004  -0.002084
    27  H    0.000441   0.007975   0.003053  -0.022918  -0.001423   0.000718
    28  H    0.000062  -0.001128  -0.005974   0.046475   0.000215   0.000537
    29  H   -0.001301   0.002559  -0.014888   0.030934   0.002494   0.000272
    30  H   -0.001099  -0.006420   0.028523  -0.039821   0.000769   0.000459
    31  H    0.000081  -0.004157  -0.009769   0.063790   0.000076   0.000615
              7          8          9         10         11         12
     1  C    0.015628   0.043411   0.115826  -0.008887  -0.006827   0.269107
     2  C   -0.086909   0.120545   0.240027  -0.054026  -0.041971   0.023454
     3  C   -0.010265   0.016441   0.476522  -0.109286   0.014383   0.032558
     4  C    0.043658  -0.264922  -1.526419   0.378414  -0.039403  -0.000680
     5  C   -0.048834  -0.069407  -0.099121  -0.005394  -0.020643  -0.004982
     6  C    0.024355   0.009900  -0.108674   0.014483  -0.004697  -0.014660
     7  C    5.451252   0.023020  -0.009483   0.000965   0.003891  -0.016497
     8  O    0.023020   8.440470   0.064340  -0.018501   0.026322  -0.001117
     9  C   -0.009483   0.064340   7.355147  -0.415000  -0.019107  -0.000641
    10  C    0.000965  -0.018501  -0.415000   5.593958  -0.063152   0.000083
    11  C    0.003891   0.026322  -0.019107  -0.063152   5.459015   0.000534
    12  H   -0.016497  -0.001117  -0.000641   0.000083   0.000534   0.582004
    13  H   -0.000060  -0.039781  -0.035388   0.012844   0.000384  -0.000167
    14  H   -0.000504  -0.000949   0.012506  -0.000062  -0.016357  -0.000125
    15  H    0.013038   0.006298   0.015229  -0.004243   0.006886  -0.000056
    16  H    0.003423   0.012281   0.074670  -0.027118   0.010763  -0.000091
    17  H    0.015008   0.000380   0.004890   0.001015   0.000362  -0.006139
    18  H   -0.000797   0.000522  -0.005096   0.000106  -0.000250  -0.001958
    19  H    0.015990   0.011004   0.007002   0.002008   0.000336  -0.006743
    20  H    0.008261  -0.017756  -0.000113  -0.001062  -0.000755  -0.001510
    21  H    0.416609   0.000961  -0.000423  -0.000037  -0.000095  -0.004284
    22  H    0.419432  -0.001531   0.000582  -0.000231  -0.000247  -0.003774
    23  H    0.443137  -0.009799  -0.001145   0.000358   0.002202   0.004793
    24  H    0.008028   0.204071  -0.015194   0.002947  -0.004902  -0.000004
    25  H    0.000428  -0.000759   0.294302   0.001921  -0.002650   0.000000
    26  H    0.000041   0.002321  -0.149555   0.478882   0.007481   0.000000
    27  H    0.000025   0.000494  -0.046357   0.411691   0.003310   0.000000
    28  H   -0.000035  -0.000103  -0.133801   0.450070   0.003774   0.000000
    29  H    0.001156  -0.012884  -0.119748  -0.010301   0.475101   0.000000
    30  H   -0.000376  -0.000242  -0.024359  -0.005110   0.408519   0.000000
    31  H   -0.000102   0.000685  -0.146876   0.020018   0.430992   0.000000
             13         14         15         16         17         18
     1  C    0.042077   0.039679   0.012004   0.021772  -0.001569  -0.084776
     2  C    0.210797   0.055280  -0.008263  -0.007290  -0.005845  -0.015785
     3  C    0.015753   0.286944   0.461411   0.005287  -0.052081  -0.075783
     4  C    0.002178  -0.068980  -0.106043   0.248234   0.021603   0.036019
     5  C   -0.016337   0.024296  -0.052166  -0.036202   0.375026   0.428315
     6  C    0.065005  -0.007229  -0.024531  -0.038622  -0.041665   0.040404
     7  C   -0.000060  -0.000504   0.013038   0.003423   0.015008  -0.000797
     8  O   -0.039781  -0.000949   0.006298   0.012281   0.000380   0.000522
     9  C   -0.035388   0.012506   0.015229   0.074670   0.004890  -0.005096
    10  C    0.012844  -0.000062  -0.004243  -0.027118   0.001015   0.000106
    11  C    0.000384  -0.016357   0.006886   0.010763   0.000362  -0.000250
    12  H   -0.000167  -0.000125  -0.000056  -0.000091  -0.006139  -0.001958
    13  H    0.627622  -0.000124  -0.000047  -0.003471  -0.000046   0.000015
    14  H   -0.000124   0.558246  -0.029854  -0.004325  -0.004383  -0.002828
    15  H   -0.000047  -0.029854   0.528023   0.004872   0.004506  -0.003153
    16  H   -0.003471  -0.004325   0.004872   0.577935   0.003415   0.000082
    17  H   -0.000046  -0.004383   0.004506   0.003415   0.554030  -0.028156
    18  H    0.000015  -0.002828  -0.003153   0.000082  -0.028156   0.554588
    19  H   -0.002903  -0.000020   0.000072   0.001771   0.002434  -0.000039
    20  H   -0.005481   0.000010  -0.000006   0.000077  -0.000034  -0.000134
    21  H    0.000006  -0.000016   0.000099  -0.000001   0.000058   0.003099
    22  H   -0.000022   0.000002  -0.000040   0.000002  -0.000137   0.000086
    23  H   -0.000087  -0.000044  -0.000801  -0.000027  -0.000078  -0.000111
    24  H   -0.007015   0.000010  -0.000276  -0.000297   0.000001  -0.000005
    25  H    0.000006   0.003495   0.000028  -0.007077   0.000026  -0.000006
    26  H   -0.001446   0.000001   0.000010  -0.000053   0.000000   0.000000
    27  H   -0.000415  -0.000001   0.000001   0.003400   0.000001   0.000000
    28  H    0.000071  -0.000004   0.000000   0.000020   0.000000   0.000000
    29  H    0.000062   0.000111   0.000170  -0.000082   0.000000   0.000000
    30  H   -0.000002   0.000138  -0.000538  -0.000008  -0.000002   0.000005
    31  H    0.000006  -0.000025   0.000019  -0.000108   0.000000   0.000000
             19         20         21         22         23         24
     1  C   -0.005492  -0.090178  -0.081601  -0.085302  -0.071537  -0.030781
     2  C   -0.053069  -0.020037  -0.012435   0.002033   0.012050   0.027722
     3  C    0.005133  -0.013151   0.007292  -0.008734  -0.001806  -0.008037
     4  C    0.016595   0.007299  -0.000781  -0.006589   0.013579   0.064351
     5  C   -0.036903   0.041348  -0.006107   0.027068  -0.012656   0.015036
     6  C    0.359441   0.397700   0.031726   0.008313  -0.018311  -0.032011
     7  C    0.015990   0.008261   0.416609   0.419432   0.443137   0.008028
     8  O    0.011004  -0.017756   0.000961  -0.001531  -0.009799   0.204071
     9  C    0.007002  -0.000113  -0.000423   0.000582  -0.001145  -0.015194
    10  C    0.002008  -0.001062  -0.000037  -0.000231   0.000358   0.002947
    11  C    0.000336  -0.000755  -0.000095  -0.000247   0.002202  -0.004902
    12  H   -0.006743  -0.001510  -0.004284  -0.003774   0.004793  -0.000004
    13  H   -0.002903  -0.005481   0.000006  -0.000022  -0.000087  -0.007015
    14  H   -0.000020   0.000010  -0.000016   0.000002  -0.000044   0.000010
    15  H    0.000072  -0.000006   0.000099  -0.000040  -0.000801  -0.000276
    16  H    0.001771   0.000077  -0.000001   0.000002  -0.000027  -0.000297
    17  H    0.002434  -0.000034   0.000058  -0.000137  -0.000078   0.000001
    18  H   -0.000039  -0.000134   0.003099   0.000086  -0.000111  -0.000005
    19  H    0.542813  -0.025894  -0.000131   0.000044  -0.000134   0.000076
    20  H   -0.025894   0.563082   0.000064   0.003007   0.000006   0.005814
    21  H   -0.000131   0.000064   0.540064  -0.025699  -0.026710  -0.000005
    22  H    0.000044   0.003007  -0.025699   0.543865  -0.027369   0.000138
    23  H   -0.000134   0.000006  -0.026710  -0.027369   0.505561  -0.000937
    24  H    0.000076   0.005814  -0.000005   0.000138  -0.000937   0.403498
    25  H    0.000005   0.000002   0.000000   0.000000   0.000000   0.000006
    26  H    0.000007   0.000003   0.000000   0.000000   0.000000  -0.000050
    27  H    0.000005   0.000001   0.000000   0.000000   0.000000  -0.000006
    28  H    0.000000   0.000000   0.000000   0.000000   0.000000  -0.000001
    29  H    0.000001   0.000003   0.000000   0.000000  -0.000006   0.000419
    30  H    0.000000   0.000000   0.000000   0.000000  -0.000004   0.000004
    31  H    0.000000   0.000000   0.000000   0.000000   0.000000  -0.000008
             25         26         27         28         29         30
     1  C    0.000164  -0.000192   0.000441   0.000062  -0.001301  -0.001099
     2  C    0.006287   0.000317   0.007975  -0.001128   0.002559  -0.006420
     3  C   -0.033710  -0.006945   0.003053  -0.005974  -0.014888   0.028523
     4  C    0.003290   0.019332  -0.022918   0.046475   0.030934  -0.039821
     5  C    0.005925   0.000004  -0.001423   0.000215   0.002494   0.000769
     6  C   -0.004364  -0.002084   0.000718   0.000537   0.000272   0.000459
     7  C    0.000428   0.000041   0.000025  -0.000035   0.001156  -0.000376
     8  O   -0.000759   0.002321   0.000494  -0.000103  -0.012884  -0.000242
     9  C    0.294302  -0.149555  -0.046357  -0.133801  -0.119748  -0.024359
    10  C    0.001921   0.478882   0.411691   0.450070  -0.010301  -0.005110
    11  C   -0.002650   0.007481   0.003310   0.003774   0.475101   0.408519
    12  H    0.000000   0.000000   0.000000   0.000000   0.000000   0.000000
    13  H    0.000006  -0.001446  -0.000415   0.000071   0.000062  -0.000002
    14  H    0.003495   0.000001  -0.000001  -0.000004   0.000111   0.000138
    15  H    0.000028   0.000010   0.000001   0.000000   0.000170  -0.000538
    16  H   -0.007077  -0.000053   0.003400   0.000020  -0.000082  -0.000008
    17  H    0.000026   0.000000   0.000001   0.000000   0.000000  -0.000002
    18  H   -0.000006   0.000000   0.000000   0.000000   0.000000   0.000005
    19  H    0.000005   0.000007   0.000005   0.000000   0.000001   0.000000
    20  H    0.000002   0.000003   0.000001   0.000000   0.000003   0.000000
    21  H    0.000000   0.000000   0.000000   0.000000   0.000000   0.000000
    22  H    0.000000   0.000000   0.000000   0.000000   0.000000   0.000000
    23  H    0.000000   0.000000   0.000000   0.000000  -0.000006  -0.000004
    24  H    0.000006  -0.000050  -0.000006  -0.000001   0.000419   0.000004
    25  H    0.587655   0.005018  -0.003403  -0.004399   0.004901  -0.003577
    26  H    0.005018   0.530556  -0.028900  -0.027063   0.003350   0.000035
    27  H   -0.003403  -0.028900   0.539070  -0.025734  -0.000029  -0.000136
    28  H   -0.004399  -0.027063  -0.025734   0.530011  -0.000070   0.000022
    29  H    0.004901   0.003350  -0.000029  -0.000070   0.501024  -0.025865
    30  H   -0.003577   0.000035  -0.000136   0.000022  -0.025865   0.540688
    31  H   -0.004241  -0.000191   0.000075   0.002579  -0.028099  -0.027986
             31
     1  C    0.000081
     2  C   -0.004157
     3  C   -0.009769
     4  C    0.063790
     5  C    0.000076
     6  C    0.000615
     7  C   -0.000102
     8  O    0.000685
     9  C   -0.146876
    10  C    0.020018
    11  C    0.430992
    12  H    0.000000
    13  H    0.000006
    14  H   -0.000025
    15  H    0.000019
    16  H   -0.000108
    17  H    0.000000
    18  H    0.000000
    19  H    0.000000
    20  H    0.000000
    21  H    0.000000
    22  H    0.000000
    23  H    0.000000
    24  H   -0.000008
    25  H   -0.004241
    26  H   -0.000191
    27  H    0.000075
    28  H    0.002579
    29  H   -0.028099
    30  H   -0.027986
    31  H    0.549910
 Mulliken atomic charges:
              1
     1  C    0.296653
     2  C    0.158488
     3  C   -0.272578
     4  C   -0.047026
     5  C   -0.531149
     6  C   -0.659165
     7  C   -0.733482
     8  O   -0.545715
     9  C    0.195456
    10  C   -0.647355
    11  C   -0.633197
    12  H    0.150894
    13  H    0.135964
    14  H    0.155113
    15  H    0.177349
    16  H    0.156770
    17  H    0.157379
    18  H    0.155637
    19  H    0.166592
    20  H    0.149435
    21  H    0.158348
    22  H    0.155104
    23  H    0.189875
    24  H    0.367407
    25  H    0.150728
    26  H    0.169121
    27  H    0.159061
    28  H    0.164476
    29  H    0.190719
    30  H    0.156383
    31  H    0.152715
 Sum of Mulliken atomic charges =   0.00000
 Mulliken charges with hydrogens summed into heavy atoms:
              1
     1  C    0.447547
     2  C    0.294452
     3  C    0.059884
     4  C    0.109744
     5  C   -0.218133
     6  C   -0.343137
     7  C   -0.230155
     8  O   -0.178308
     9  C    0.346184
    10  C   -0.154697
    11  C   -0.133380
 Sum of Mulliken charges with hydrogens summed into heavy atoms =   0.00000
 Electronic spatial extent (au):  <R**2>=           1999.9152
 Charge=              0.0000 electrons
 Dipole moment (field-independent basis, Debye):
    X=             -0.9708    Y=             -0.8269    Z=             -1.2974  Tot=              1.8192
 Quadrupole moment (field-independent basis, Debye-Ang):
   XX=            -72.7801   YY=            -67.8539   ZZ=            -73.4283
   XY=              2.1115   XZ=             -0.9298   YZ=             -0.3869
 Traceless Quadrupole moment (field-independent basis, Debye-Ang):
   XX=             -1.4260   YY=              3.5002   ZZ=             -2.0742
   XY=              2.1115   XZ=             -0.9298   YZ=             -0.3869
 Octapole moment (field-independent basis, Debye-Ang**2):
  XXX=             -1.2991  YYY=            -19.4220  ZZZ=             -1.3789  XYY=             -5.7833
  XXY=             -0.4501  XXZ=             -0.3737  XZZ=             -2.6547  YZZ=             -2.3524
  YYZ=              6.1066  XYZ=              0.8860
 Hexadecapole moment (field-independent basis, Debye-Ang**3):
 XXXX=          -1804.3575 YYYY=           -506.1962 ZZZZ=           -446.5196 XXXY=              6.2135
 XXXZ=              6.8088 YYYX=             12.5895 YYYZ=            -22.5696 ZZZX=             -0.8356
 ZZZY=             -8.8976 XXYY=           -390.2750 XXZZ=           -386.8045 YYZZ=           -161.0771
 XXYZ=             -3.0432 YYXZ=             -7.8420 ZZXY=              1.6579
 N-N= 7.028383073748D+02 E-N=-2.491314992933D+03  KE= 4.636961007737D+02
 1\1\GINC-COMPUTE-10-6\SP\RmPW1PW91\6-31+G(d,p)\C10H20O1\ASAROTTI.IQUIR
 \19-Sep-2024\0\\# mPW1PW91/6-31+G** nmr scrf=(pcm,solvent=benzene)\\co
 mment\\0,1\C,0,-2.353455,0.06032,-0.398979\C,0,0.018315,-1.017778,-0.3
 66645\C,0,-0.251337,1.464224,0.044945\C,0,0.649371,0.373701,-0.565266\
 C,0,-1.663296,1.431519,-0.561981\C,0,-1.420366,-1.057102,-0.917437\C,0
 ,-2.850647,-0.180987,1.036669\O,0,0.0681,-1.348579,1.029217\C,0,2.1449
 27,0.511894,-0.159206\C,0,3.024668,-0.558859,-0.824526\C,0,2.418702,0.
 562102,1.354086\H,0,-3.242378,0.059186,-1.04663\H,0,0.610692,-1.757157
 ,-0.928748\H,0,0.201934,2.449883,-0.127194\H,0,-0.308869,1.332204,1.13
 0889\H,0,0.632696,0.523966,-1.657863\H,0,-1.591229,1.666815,-1.634343\
 H,0,-2.287409,2.216317,-0.114297\H,0,-1.353828,-0.986208,-2.012644\H,0
 ,-1.859082,-2.045003,-0.706888\H,0,-3.559476,0.601046,1.335491\H,0,-3.
 373582,-1.143485,1.109235\H,0,-2.028559,-0.195452,1.756556\H,0,-0.4056
 49,-2.186852,1.146303\H,0,2.456779,1.484704,-0.571563\H,0,2.846973,-1.
 549167,-0.388819\H,0,2.838924,-0.625472,-1.904237\H,0,4.086902,-0.3268
 11,-0.683832\H,0,2.129922,-0.373192,1.840014\H,0,1.871547,1.376311,1.8
 41095\H,0,3.487611,0.732805,1.53378\\Version=AM64L-G09RevC.01\State=1-
 A\HF=-468.2778955\RMSD=2.399e-09\Dipole=-0.3819583,-0.3253255,-0.51044
 51\Quadrupole=-1.0601746,2.6022974,-1.5421228,1.5698314,-0.6913068,-0.
 2876205\PG=C01 [X(C10H20O1)]\\@


 Other things may change us, but we start and end with family.
 -- Anthony Brandt
 Job cpu time:  0 days  0 hours 13 minutes  7.6 seconds.
 File lengths (MBytes):  RWF=    119 Int=      0 D2E=      0 Chk=      7 Scr=      1
 Normal termination of Gaussian 09 at Thu Sep 19 10:06:22 2024.
