 Entering Gaussian System, Link 0=g09
 Input=/home/asarotti.iquir/SCF2/04_Mentol08_OptB_NMR_benzene.gjc
 Output=/home/asarotti.iquir/SCF2/04_Mentol08_OptB_NMR_benzene.log
 Initial command:
 /opt/ohpc/pub/apps/software/Gaussian/09/AMD64.SSE4a-enabled/g09/l1.exe /local/asarotti.iquir/Gau-2486987.inp -scrdir=/local/asarotti.iquir/
 Entering Link 1 = /opt/ohpc/pub/apps/software/Gaussian/09/AMD64.SSE4a-enabled/g09/l1.exe PID=   2486988.
  
 Copyright (c) 1988,1990,1992,1993,1995,1998,2003,2009,2011,
            Gaussian, Inc.  All Rights Reserved.
  
 This is part of the Gaussian(R) 09 program.  It is based on
 the Gaussian(R) 03 system (copyright 2003, Gaussian, Inc.),
 the Gaussian(R) 98 system (copyright 1998, Gaussian, Inc.),
 the Gaussian(R) 94 system (copyright 1995, Gaussian, Inc.),
 the Gaussian 92(TM) system (copyright 1992, Gaussian, Inc.),
 the Gaussian 90(TM) system (copyright 1990, Gaussian, Inc.),
 the Gaussian 88(TM) system (copyright 1988, Gaussian, Inc.),
 the Gaussian 86(TM) system (copyright 1986, Carnegie Mellon
 University), and the Gaussian 82(TM) system (copyright 1983,
 Carnegie Mellon University). Gaussian is a federally registered
 trademark of Gaussian, Inc.
  
 This software contains proprietary and confidential information,
 including trade secrets, belonging to Gaussian, Inc.
  
 This software is provided under written license and may be
 used, copied, transmitted, or stored only in accord with that
 written license.
  
 The following legend is applicable only to US Government
 contracts under FAR:
  
                    RESTRICTED RIGHTS LEGEND
  
 Use, reproduction and disclosure by the US Government is
 subject to restrictions as set forth in subparagraphs (a)
 and (c) of the Commercial Computer Software - Restricted
 Rights clause in FAR 52.227-19.
  
 Gaussian, Inc.
 340 Quinnipiac St., Bldg. 40, Wallingford CT 06492
  
  
 ---------------------------------------------------------------
 Warning -- This program may not be used in any manner that
 competes with the business of Gaussian, Inc. or will provide
 assistance to any competitor of Gaussian, Inc.  The licensee
 of this program is prohibited from giving any competitor of
 Gaussian, Inc. access to this program.  By using this program,
 the user acknowledges that Gaussian, Inc. is engaged in the
 business of creating and licensing software in the field of
 computational chemistry and represents and warrants to the
 licensee that it is not a competitor of Gaussian, Inc. and that
 it will not use this program in any manner prohibited above.
 ---------------------------------------------------------------
  

 Cite this work as:
 Gaussian 09, Revision C.01,
 M. J. Frisch, G. W. Trucks, H. B. Schlegel, G. E. Scuseria, 
 M. A. Robb, J. R. Cheeseman, G. Scalmani, V. Barone, B. Mennucci, 
 G. A. Petersson, H. Nakatsuji, M. Caricato, X. Li, H. P. Hratchian, 
 A. F. Izmaylov, J. Bloino, G. Zheng, J. L. Sonnenberg, M. Hada, 
 M. Ehara, K. Toyota, R. Fukuda, J. Hasegawa, M. Ishida, T. Nakajima, 
 Y. Honda, O. Kitao, H. Nakai, T. Vreven, J. A. Montgomery, Jr., 
 J. E. Peralta, F. Ogliaro, M. Bearpark, J. J. Heyd, E. Brothers, 
 K. N. Kudin, V. N. Staroverov, T. Keith, R. Kobayashi, J. Normand, 
 K. Raghavachari, A. Rendell, J. C. Burant, S. S. Iyengar, J. Tomasi, 
 M. Cossi, N. Rega, J. M. Millam, M. Klene, J. E. Knox, J. B. Cross, 
 V. Bakken, C. Adamo, J. Jaramillo, R. Gomperts, R. E. Stratmann, 
 O. Yazyev, A. J. Austin, R. Cammi, C. Pomelli, J. W. Ochterski, 
 R. L. Martin, K. Morokuma, V. G. Zakrzewski, G. A. Voth, 
 P. Salvador, J. J. Dannenberg, S. Dapprich, A. D. Daniels, 
 O. Farkas, J. B. Foresman, J. V. Ortiz, J. Cioslowski, 
 and D. J. Fox, Gaussian, Inc., Wallingford CT, 2010.
 
 ******************************************
 Gaussian 09:  AM64L-G09RevC.01 23-Sep-2011
                19-Sep-2024 
 ******************************************
 %nprocshared=4
 Will use up to    4 processors via shared memory.
 %mem=100mw
 --------------------------------------------------
 # mPW1PW91/6-31+G** nmr scrf=(pcm,solvent=benzene)
 --------------------------------------------------
 1/38=1/1;
 2/12=2,17=6,18=5,40=1/2;
 3/5=1,6=6,7=111,11=2,16=1,25=1,30=1,70=2201,72=12,74=-7/1,2,8,3;
 4//1;
 5/5=2,38=5,53=12/2;
 8/6=1,10=90,11=11/1;
 10/13=100,45=16/2;
 6/7=2,8=2,9=2,10=2,28=1/1;
 99/9=1/99;
 -------
 comment
 -------
 Charge =  0 Multiplicity = 1
 Symbolic Z-Matrix:
 6                    -2.35216   0.16277  -0.42079 
 6                     0.0043   -0.93575  -0.5215 
 6                    -0.25089   1.40118   0.39604 
 6                     0.65217   0.46661  -0.42988 
 6                    -1.64481   1.52415  -0.24054 
 6                    -1.40618  -0.84062  -1.12237 
 6                    -2.9417   -0.37314   0.89471 
 8                    -0.12478  -1.58174   0.7524 
 6                     2.14832   0.52492  -0.00605 
 6                     3.06828  -0.17694  -1.01878 
 6                     2.47287   0.04821   1.42347 
 1                    -3.19977   0.325    -1.10278 
 1                     0.60926  -1.57175  -1.18784 
 1                     0.21149   2.39511   0.46642 
 1                    -0.34075   1.02191   1.42063 
 1                     0.64147   0.85113  -1.46366 
 1                    -1.53502   2.00182  -1.22572 
 1                    -2.27672   2.19355   0.35812 
 1                    -1.29188  -0.54287  -2.17411 
 1                    -1.851    -1.84336  -1.12344 
 1                    -3.6587    0.3445    1.31346 
 1                    -3.47562  -1.31552   0.72223 
 1                    -2.16831  -0.57187   1.63993 
 1                     0.76456  -1.73228   1.10229 
 1                     2.4012    1.5957   -0.03539 
 1                     2.90685  -1.26221  -1.03294 
 1                     2.90296   0.19629  -2.0365 
 1                     4.12274  -0.00965  -0.76858 
 1                     2.50452  -1.04788   1.50125 
 1                     1.75949   0.42233   2.16408 
 1                     3.47032   0.39567   1.71745 
 
                          Input orientation:                          
 ---------------------------------------------------------------------
 Center     Atomic      Atomic             Coordinates (Angstroms)
 Number     Number       Type             X           Y           Z
 ---------------------------------------------------------------------
      1          6           0       -2.352163    0.162771   -0.420790
      2          6           0        0.004303   -0.935753   -0.521500
      3          6           0       -0.250888    1.401175    0.396040
      4          6           0        0.652165    0.466610   -0.429879
      5          6           0       -1.644809    1.524147   -0.240535
      6          6           0       -1.406182   -0.840622   -1.122367
      7          6           0       -2.941702   -0.373135    0.894705
      8          8           0       -0.124783   -1.581739    0.752395
      9          6           0        2.148321    0.524924   -0.006045
     10          6           0        3.068282   -0.176943   -1.018779
     11          6           0        2.472868    0.048212    1.423474
     12          1           0       -3.199770    0.325000   -1.102775
     13          1           0        0.609263   -1.571754   -1.187837
     14          1           0        0.211488    2.395111    0.466420
     15          1           0       -0.340752    1.021905    1.420627
     16          1           0        0.641470    0.851126   -1.463662
     17          1           0       -1.535019    2.001815   -1.225719
     18          1           0       -2.276725    2.193545    0.358124
     19          1           0       -1.291881   -0.542870   -2.174113
     20          1           0       -1.851004   -1.843364   -1.123440
     21          1           0       -3.658702    0.344502    1.313462
     22          1           0       -3.475615   -1.315518    0.722234
     23          1           0       -2.168311   -0.571870    1.639925
     24          1           0        0.764560   -1.732282    1.102287
     25          1           0        2.401197    1.595702   -0.035393
     26          1           0        2.906854   -1.262210   -1.032937
     27          1           0        2.902958    0.196285   -2.036500
     28          1           0        4.122741   -0.009648   -0.768584
     29          1           0        2.504524   -1.047878    1.501254
     30          1           0        1.759488    0.422328    2.164081
     31          1           0        3.470323    0.395671    1.717445
 ---------------------------------------------------------------------
                    Distance matrix (angstroms):
                    1          2          3          4          5
     1  C    0.000000
     2  C    2.601890   0.000000
     3  C    2.572200   2.523536   0.000000
     4  C    3.019667   1.547495   1.539824   0.000000
     5  C    1.544729   2.974831   1.537324   2.535809   0.000000
     6  C    1.547219   1.536086   2.943793   2.534795   2.535094
     7  C    1.537946   3.316794   3.261491   3.921170   2.563275
     8  O    3.062825   1.434144   3.006770   2.489408   3.597627
     9  C    4.534041   2.645011   2.585671   1.556123   3.929538
    10  C    5.463902   3.195473   3.938154   2.568771   5.070759
    11  C    5.166755   3.293163   3.210136   2.631527   4.680019
    12  H    1.099936   3.491914   3.478578   3.912831   2.144601
    13  H    3.516672   1.102034   3.476612   2.175148   3.944975
    14  H    3.513231   3.480455   1.098478   2.171788   2.168917
    15  H    2.859144   2.779091   1.096221   2.172236   2.170777
    16  H    3.243956   2.118157   2.134795   1.103030   2.678819
    17  H    2.167422   3.390390   2.154034   2.788188   1.100367
    18  H    2.176337   3.971062   2.175616   3.490222   1.098091
    19  H    2.167088   2.136722   3.386542   2.800128   2.852340
    20  H    2.183908   2.151338   3.923802   3.476041   3.487430
    21  H    2.178922   4.292289   3.683940   4.651637   2.803968
    22  H    2.180364   3.714960   4.229147   4.641327   3.513185
    23  H    2.195460   3.086166   3.019382   3.649331   2.864170
    24  H    3.952841   1.961921   3.368749   2.682404   4.267618
    25  H    4.979584   3.519896   2.693980   2.118863   4.051835
    26  H    5.482933   2.965290   4.371147   2.904500   5.395306
    27  H    5.497994   3.461060   4.161220   2.778556   5.066645
    28  H    6.486530   4.228505   4.740823   3.519438   5.991327
    29  H    5.361654   3.217951   3.848591   3.074765   5.183252
    30  H    4.863600   3.483878   2.850565   2.820772   4.311081
    31  H    6.207063   4.335765   4.074869   3.543734   5.592112
                    6          7          8          9         10
     6  C    0.000000
     7  C    2.577779   0.000000
     8  O    2.388717   3.068552   0.000000
     9  C    3.968045   5.246541   3.190652   0.000000
    10  C    4.524603   6.310295   3.912310   1.537718   0.000000
    11  C    4.724231   5.456620   3.139248   1.541463   2.523849
    12  H    2.139163   2.131647   4.066061   5.463045   6.288679
    13  H    2.144961   4.287543   2.074469   2.856815   2.832111
    14  H    3.951084   4.217727   4.001274   2.733522   4.120989
    15  H    3.327306   2.997945   2.696690   2.911678   4.359983
    16  H    2.677942   4.460923   3.378888   2.121710   2.672875
    17  H    2.847232   3.480710   4.329383   4.151603   5.097077
    18  H    3.486527   2.705173   4.363379   4.743200   6.007010
    19  H    1.099041   3.488318   3.317501   4.204247   4.525453
    20  H    1.096977   2.724721   2.562624   4.780372   5.194929
    21  H    3.523014   1.097474   4.063716   5.957782   7.138877
    22  H    2.812585   1.096766   3.361526   5.962070   6.866591
    23  H    2.878077   1.092237   2.446130   4.748209   5.886135
    24  H    3.233615   3.953068   0.967481   2.870222   3.496446
    25  H    4.649013   5.769573   4.134890   1.100624   2.134085
    26  H    4.334514   6.221886   3.532751   2.196299   1.097298
    27  H    4.525428   6.563250   4.484029   2.190942   1.096534
    28  H    5.602202   7.266705   4.777688   2.183018   1.096571
    29  H    4.713806   5.521282   2.785508   2.207382   2.725237
    30  H    4.734686   4.934092   3.091863   2.207071   3.493231
    31  H    5.776959   6.510148   4.215004   2.175963   2.824260
                   11         12         13         14         15
    11  C    0.000000
    12  H    6.215896   0.000000
    13  H    3.593920   4.256013   0.000000
    14  H    3.396723   4.287705   4.316342   0.000000
    15  H    2.977338   3.876496   3.799168   1.761015   0.000000
    16  H    3.512014   3.893863   2.438742   2.508783   3.051729
    17  H    5.186323   2.366056   4.167706   2.463393   3.064253
    18  H    5.319404   2.545132   4.989629   2.498712   2.499929
    19  H    5.240739   2.353934   2.376066   4.226614   4.034269
    20  H    5.362900   2.553703   2.476052   4.974555   4.118605
    21  H    6.139710   2.459512   5.305097   4.461037   3.388090
    22  H    6.142959   2.469423   4.516664   5.237264   3.972237
    23  H    4.687419   3.064423   4.087900   3.980394   2.434786
    24  H    2.488300   4.981026   2.300990   4.212551   2.984728
    25  H    2.127946   5.841645   3.817320   2.384470   3.157138
    26  H    2.817713   6.309910   2.323518   4.784252   4.667344
    27  H    3.489745   6.175087   3.017818   4.282926   4.811967
    28  H    2.744184   7.337768   3.867877   4.754577   5.077353
    29  H    1.099302   6.419091   3.331317   4.264161   3.519389
    30  H    1.094245   5.939365   4.066293   3.028239   2.307211
    31  H    1.096386   7.242153   4.527371   4.022789   3.873572
                   16         17         18         19         20
    16  H    0.000000
    17  H    2.473420   0.000000
    18  H    3.692811   1.759388   0.000000
    19  H    2.487129   2.726534   3.856178   0.000000
    20  H    3.686252   3.859496   4.321216   1.762900   0.000000
    21  H    5.143983   3.701912   2.498298   4.307256   3.740725
    22  H    5.140319   4.308727   3.726048   3.708707   2.514855
    23  H    4.421769   3.903438   3.049965   3.913548   3.058360
    24  H    3.643246   4.964993   5.021485   4.047029   3.436186
    25  H    2.385579   4.132263   4.732359   4.773514   5.576041
    26  H    3.127887   5.515547   6.383321   4.410114   4.794074
    27  H    2.423074   4.859315   6.045857   4.261685   5.252999
    28  H    3.652850   6.022060   6.861246   5.619428   6.258919
    29  H    3.983455   5.749341   5.888456   5.308111   5.147081
    30  H    3.820255   4.983904   4.763371   5.390954   5.383011
    31  H    4.281272   6.024563   6.173222   6.221227   6.434316
                   21         22         23         24         25
    21  H    0.000000
    22  H    1.771648   0.000000
    23  H    1.779770   1.761878   0.000000
    24  H    4.891101   4.277525   3.199585   0.000000
    25  H    6.333031   6.601978   5.327801   3.879223   0.000000
    26  H    7.154973   6.619621   5.777375   3.060976   3.068948
    27  H    7.368826   7.112127   6.310621   4.259589   2.492902
    28  H    8.062952   7.852570   6.759759   4.212482   2.465448
    29  H    6.321340   6.036602   4.699064   1.911821   3.059489
    30  H    5.485106   5.701345   4.085434   2.599929   2.574157
    31  H    7.140645   7.222511   5.721568   3.496821   2.378139
                   26         27         28         29         30
    26  H    0.000000
    27  H    1.770413   0.000000
    28  H    1.765552   1.771409   0.000000
    29  H    2.574865   3.771259   2.974679   0.000000
    30  H    3.791443   4.359300   3.791054   1.776492   0.000000
    31  H    3.260470   3.801810   2.601975   1.750240   1.768375
                   31
    31  H    0.000000
 Stoichiometry    C10H20O
 Framework group  C1[X(C10H20O)]
 Deg. of freedom    87
 Full point group                 C1      NOp   1
 Largest Abelian subgroup         C1      NOp   1
 Largest concise Abelian subgroup C1      NOp   1
                         Standard orientation:                         
 ---------------------------------------------------------------------
 Center     Atomic      Atomic             Coordinates (Angstroms)
 Number     Number       Type             X           Y           Z
 ---------------------------------------------------------------------
      1          6           0       -2.352163    0.162771   -0.420790
      2          6           0        0.004303   -0.935753   -0.521500
      3          6           0       -0.250888    1.401175    0.396040
      4          6           0        0.652165    0.466610   -0.429879
      5          6           0       -1.644809    1.524147   -0.240535
      6          6           0       -1.406182   -0.840622   -1.122367
      7          6           0       -2.941702   -0.373135    0.894705
      8          8           0       -0.124783   -1.581739    0.752395
      9          6           0        2.148321    0.524924   -0.006045
     10          6           0        3.068282   -0.176943   -1.018779
     11          6           0        2.472868    0.048212    1.423474
     12          1           0       -3.199770    0.325000   -1.102775
     13          1           0        0.609263   -1.571754   -1.187837
     14          1           0        0.211488    2.395111    0.466420
     15          1           0       -0.340752    1.021905    1.420627
     16          1           0        0.641470    0.851126   -1.463662
     17          1           0       -1.535019    2.001815   -1.225719
     18          1           0       -2.276725    2.193545    0.358124
     19          1           0       -1.291881   -0.542870   -2.174113
     20          1           0       -1.851004   -1.843364   -1.123440
     21          1           0       -3.658702    0.344502    1.313462
     22          1           0       -3.475615   -1.315518    0.722234
     23          1           0       -2.168311   -0.571870    1.639925
     24          1           0        0.764560   -1.732282    1.102287
     25          1           0        2.401197    1.595702   -0.035393
     26          1           0        2.906854   -1.262210   -1.032937
     27          1           0        2.902958    0.196285   -2.036500
     28          1           0        4.122741   -0.009648   -0.768584
     29          1           0        2.504524   -1.047878    1.501254
     30          1           0        1.759488    0.422328    2.164081
     31          1           0        3.470323    0.395671    1.717445
 ---------------------------------------------------------------------
 Rotational constants (GHZ):      1.8728376      0.7136673      0.6799654
 Standard basis: 6-31+G(d,p) (6D, 7F)
 There are   309 symmetry adapted basis functions of A   symmetry.
 Integral buffers will be    131072 words long.
 Raffenetti 2 integral format.
 Two-electron integral symmetry is turned on.
   309 basis functions,   492 primitive gaussians,   309 cartesian basis functions
    44 alpha electrons       44 beta electrons
       nuclear repulsion energy       701.0543046257 Hartrees.
 NAtoms=   31 NActive=   31 NUniq=   31 SFac= 1.00D+00 NAtFMM=   60 NAOKFM=F Big=F
 ------------------------------------------------------------------------------
 Polarizable Continuum Model (PCM)
 =================================
 Model                : PCM.
 Atomic radii         : UFF (Universal Force Field).
 Polarization charges : Total charges.
 Charge compensation  : None.
 Solution method      : Matrix inversion.
 Cavity type          : Scaled VdW (van der Waals Surface) (Alpha=1.100).
 Cavity algorithm     : GePol (No added spheres)
                        Default sphere list used, NSphG=   31.
                        Lebedev-Laikov grids with approx.  5.0 points / Ang**2.
                        Smoothing algorithm: Karplus/York (Gamma=1.0000).
                        Polarization charges: spherical gaussians, with
                                              point-specific exponents (IZeta= 3).
                        Self-potential: point-specific (ISelfS= 7).
                        Self-field    : sphere-specific E.n sum rule (ISelfD= 2).
 Solvent              : Benzene, Eps=   2.270600 Eps(inf)=   2.253301
 ------------------------------------------------------------------------------
 One-electron integrals computed using PRISM.
 NBasis=   309 RedAO= T  NBF=   309
 NBsUse=   309 1.00D-06 NBFU=   309
 Harris functional with IExCor=  908 diagonalized for initial guess.
 ExpMin= 4.38D-02 ExpMax= 5.48D+03 ExpMxC= 8.25D+02 IAcc=2 IRadAn=         4 AccDes= 0.00D+00
 HarFok:  IExCor=  908 AccDes= 0.00D+00 IRadAn=         4 IDoV= 1
 ScaDFX=  1.000000  1.000000  1.000000  1.000000
 FoFCou: FMM=F IPFlag=           0 FMFlag=      100000 FMFlg1=           0
         NFxFlg=           0 DoJE=T BraDBF=F KetDBF=T FulRan=T
         Omega=  0.000000  0.000000  1.000000  0.000000  0.000000 ICntrl=     500 IOpCl=  0
         NMat0=    1 NMatS0=    1 NMatT0=    0 NMatD0=    1 NMtDS0=    0 NMtDT0=    0
         I1Cent=           4 NGrid=           0.
 Petite list used in FoFCou.
 Initial guess orbital symmetries:
       Occupied  (A) (A) (A) (A) (A) (A) (A) (A) (A) (A) (A) (A)
                 (A) (A) (A) (A) (A) (A) (A) (A) (A) (A) (A) (A)
                 (A) (A) (A) (A) (A) (A) (A) (A) (A) (A) (A) (A)
                 (A) (A) (A) (A) (A) (A) (A) (A)
       Virtual   (A) (A) (A) (A) (A) (A) (A) (A) (A) (A) (A) (A)
                 (A) (A) (A) (A) (A) (A) (A) (A) (A) (A) (A) (A)
                 (A) (A) (A) (A) (A) (A) (A) (A) (A) (A) (A) (A)
                 (A) (A) (A) (A) (A) (A) (A) (A) (A) (A) (A) (A)
                 (A) (A) (A) (A) (A) (A) (A) (A) (A) (A) (A) (A)
                 (A) (A) (A) (A) (A) (A) (A) (A) (A) (A) (A) (A)
                 (A) (A) (A) (A) (A) (A) (A) (A) (A) (A) (A) (A)
                 (A) (A) (A) (A) (A) (A) (A) (A) (A) (A) (A) (A)
                 (A) (A) (A) (A) (A) (A) (A) (A) (A) (A) (A) (A)
                 (A) (A) (A) (A) (A) (A) (A) (A) (A) (A) (A) (A)
                 (A) (A) (A) (A) (A) (A) (A) (A) (A) (A) (A) (A)
                 (A) (A) (A) (A) (A) (A) (A) (A) (A) (A) (A) (A)
                 (A) (A) (A) (A) (A) (A) (A) (A) (A) (A) (A) (A)
                 (A) (A) (A) (A) (A) (A) (A) (A) (A) (A) (A) (A)
                 (A) (A) (A) (A) (A) (A) (A) (A) (A) (A) (A) (A)
                 (A) (A) (A) (A) (A) (A) (A) (A) (A) (A) (A) (A)
                 (A) (A) (A) (A) (A) (A) (A) (A) (A) (A) (A) (A)
                 (A) (A) (A) (A) (A) (A) (A) (A) (A) (A) (A) (A)
                 (A) (A) (A) (A) (A) (A) (A) (A) (A) (A) (A) (A)
                 (A) (A) (A) (A) (A) (A) (A) (A) (A) (A) (A) (A)
                 (A) (A) (A) (A) (A) (A) (A) (A) (A) (A) (A) (A)
                 (A) (A) (A) (A) (A) (A) (A) (A) (A) (A) (A) (A)
                 (A)
 The electronic state of the initial guess is 1-A.
 Requested convergence on RMS density matrix=1.00D-08 within 128 cycles.
 Requested convergence on MAX density matrix=1.00D-06.
 Requested convergence on             energy=1.00D-06.
 No special actions if energy rises.
 Error on total polarization charges =  0.00930
 SCF Done:  E(RmPW1PW91) =  -468.276868075     A.U. after   13 cycles
             Convg  =    0.2806D-08             -V/T =  2.0099
 Range of M.O.s used for correlation:     1   309
 NBasis=   309 NAE=    44 NBE=    44 NFC=     0 NFV=     0
 NROrb=    309 NOA=    44 NOB=    44 NVA=   265 NVB=   265

 **** Warning!!: The largest alpha MO coefficient is  0.67011634D+02

 NEqPCM:  Using equilibrium solvation (IEInf=0, Eps=   2.2706, EpsInf=   2.2533)
          Differentiating once with respect to magnetic field using GIAOs.
          Electric field/nuclear overlap derivatives assumed to be zero.
 FoFCou: FMM=F IPFlag=           0 FMFlag=    10101102 FMFlg1=           0
         NFxFlg=    40000000 DoJE=F BraDBF=F KetDBF=T FulRan=T
         Omega=  0.000000  0.000000  1.000000  0.000000  0.000000 ICntrl=    6100 IOpCl=  0
         NMat0=    1 NMatS0=    1 NMatT0=    0 NMatD0=    1 NMtDS0=    0 NMtDT0=    0
         I1Cent=           7 NGrid=        1891.
 Symmetry not used in FoFCou.
          There are     3 degrees of freedom in the 1st order CPHF.  IDoFFX=0.
      3 vectors produced by pass  0 Test12= 3.89D-13 3.33D-08 XBig12= 3.29D+01 9.13D-01.
 AX will form     3 AO Fock derivatives at one time.
      3 vectors produced by pass  1 Test12= 3.89D-13 3.33D-08 XBig12= 6.98D-02 3.55D-02.
      3 vectors produced by pass  2 Test12= 3.89D-13 3.33D-08 XBig12= 9.70D-05 1.74D-03.
      3 vectors produced by pass  3 Test12= 3.89D-13 3.33D-08 XBig12= 3.19D-07 1.25D-04.
      3 vectors produced by pass  4 Test12= 3.89D-13 3.33D-08 XBig12= 9.23D-10 5.54D-06.
      3 vectors produced by pass  5 Test12= 3.89D-13 3.33D-08 XBig12= 2.27D-12 2.89D-07.
 Inverted reduced A of dimension    18 with in-core refinement.
 Calculating GIAO nuclear magnetic shielding tensors.
 SCF GIAO Magnetic shielding tensor (ppm):
      1  C    Isotropic =   164.4840   Anisotropy =     1.4686
   XX=   164.2262   YX=     0.1306   ZX=    -1.9443
   XY=     0.6286   YY=   164.0657   ZY=     1.2317
   XZ=     0.7229   YZ=    -0.7687   ZZ=   165.1600
   Eigenvalues:   163.5462   164.4426   165.4630
      2  C    Isotropic =   125.3762   Anisotropy =    58.7076
   XX=   107.6449   YX=     5.7824   ZX=     2.9367
   XY=     9.3130   YY=   114.5333   ZY=   -24.2484
   XZ=     0.7023   YZ=   -21.6033   ZZ=   153.9504
   Eigenvalues:    97.9816   113.6324   164.5146
      3  C    Isotropic =   171.1418   Anisotropy =    21.0797
   XX=   183.2588   YX=    -2.4416   ZX=     1.0664
   XY=    -3.5967   YY=   176.2707   ZY=    10.1514
   XZ=    -5.3032   YZ=     5.3505   ZZ=   153.8960
   Eigenvalues:   151.4332   176.7973   185.1950
      4  C    Isotropic =   146.4385   Anisotropy =    15.7361
   XX=   148.6347   YX=    -3.8188   ZX=    -2.0487
   XY=    -7.5494   YY=   137.6730   ZY=    -6.2395
   XZ=     7.5374   YZ=    -3.6063   ZZ=   153.0080
   Eigenvalues:   134.5643   147.8220   156.9293
      5  C    Isotropic =   160.7202   Anisotropy =    11.5272
   XX=   163.7791   YX=     3.6599   ZX=    -2.0555
   XY=     5.7432   YY=   163.5239   ZY=    -2.8856
   XZ=     0.2700   YZ=     2.3549   ZZ=   154.8577
   Eigenvalues:   154.7630   158.9926   168.4050
      6  C    Isotropic =   155.8350   Anisotropy =    11.1519
   XX=   163.1019   YX=    -0.6507   ZX=     2.0440
   XY=    -1.8284   YY=   151.1595   ZY=    -3.7374
   XZ=    -1.4417   YZ=    -2.3853   ZZ=   153.2437
   Eigenvalues:   148.9184   155.3171   163.2696
      7  C    Isotropic =   173.5054   Anisotropy =    33.1346
   XX=   166.3226   YX=     0.6741   ZX=   -17.9465
   XY=     3.4263   YY=   173.0896   ZY=    -1.3265
   XZ=   -22.3734   YZ=    -3.2181   ZZ=   181.1039
   Eigenvalues:   152.2343   172.6867   195.5951
      8  O    Isotropic =   280.8290   Anisotropy =    84.6811
   XX=   314.8553   YX=   -15.6449   ZX=    49.6573
   XY=    -2.5930   YY=   266.0389   ZY=   -12.7603
   XZ=    26.9481   YZ=    -8.7808   ZZ=   261.5928
   Eigenvalues:   240.3856   264.8184   337.2831
      9  C    Isotropic =   159.6283   Anisotropy =    20.6680
   XX=   173.2928   YX=     1.3603   ZX=     0.0432
   XY=    -1.0255   YY=   156.1651   ZY=     3.0434
   XZ=     3.1736   YZ=     1.6951   ZZ=   149.4269
   Eigenvalues:   148.5881   156.8898   173.4069
     10  C    Isotropic =   173.8564   Anisotropy =    34.8115
   XX=   172.6570   YX=    -8.7228   ZX=   -14.8729
   XY=   -13.7102   YY=   161.3540   ZY=     6.0241
   XZ=    -9.3605   YZ=     3.4941   ZZ=   187.5582
   Eigenvalues:   154.2481   170.2570   197.0640
     11  C    Isotropic =   176.1331   Anisotropy =    24.1994
   XX=   166.3414   YX=    -1.2722   ZX=     7.1951
   XY=     1.7949   YY=   172.5990   ZY=    -8.2530
   XZ=     1.6576   YZ=    -4.5391   ZZ=   189.4588
   Eigenvalues:   165.1792   170.9540   192.2660
     12  H    Isotropic =    29.7991   Anisotropy =    10.0132
   XX=    33.1241   YX=    -0.8024   ZX=     4.0792
   XY=    -0.8561   YY=    26.0015   ZY=    -1.3033
   XZ=     4.6286   YZ=    -1.2732   ZZ=    30.2717
   Eigenvalues:    25.6056    27.3171    36.4746
     13  H    Isotropic =    27.2043   Anisotropy =     5.1578
   XX=    28.1387   YX=    -0.6395   ZX=    -1.3458
   XY=    -0.7942   YY=    25.7516   ZY=     0.8038
   XZ=    -2.5050   YZ=     3.2888   ZZ=    27.7227
   Eigenvalues:    24.4049    26.5653    30.6429
     14  H    Isotropic =    30.7071   Anisotropy =     8.9369
   XX=    31.2621   YX=     1.9656   ZX=     1.0261
   XY=     1.6797   YY=    35.4753   ZY=     2.2178
   XZ=     1.5594   YZ=     1.9333   ZZ=    25.3840
   Eigenvalues:    24.8355    30.6208    36.6651
     15  H    Isotropic =    29.2695   Anisotropy =     4.3045
   XX=    29.6937   YX=    -0.7811   ZX=     0.4767
   XY=    -0.2654   YY=    26.0229   ZY=     0.4041
   XZ=     0.1824   YZ=    -0.0007   ZZ=    32.0919
   Eigenvalues:    25.9400    29.7294    32.1392
     16  H    Isotropic =    30.3600   Anisotropy =     4.5996
   XX=    32.0582   YX=    -0.0510   ZX=    -0.4784
   XY=    -0.0783   YY=    27.1446   ZY=    -2.6014
   XZ=    -0.6708   YZ=    -3.1841   ZZ=    31.8773
   Eigenvalues:    25.7588    31.8948    33.4264
     17  H    Isotropic =    29.9105   Anisotropy =     8.7613
   XX=    28.3307   YX=    -0.2436   ZX=     1.7148
   XY=    -0.1443   YY=    31.2615   ZY=    -5.0712
   XZ=     1.3912   YZ=    -4.5865   ZZ=    30.1393
   Eigenvalues:    25.4516    28.5285    35.7514
     18  H    Isotropic =    29.9686   Anisotropy =     9.5241
   XX=    31.4612   YX=    -3.6194   ZX=    -1.4962
   XY=    -3.7356   YY=    32.3197   ZY=     2.5373
   XZ=    -1.4604   YZ=     2.1019   ZZ=    26.1249
   Eigenvalues:    25.3385    28.2493    36.3180
     19  H    Isotropic =    30.1029   Anisotropy =     8.4985
   XX=    28.4920   YX=    -0.2697   ZX=     0.8235
   XY=    -0.6572   YY=    26.2869   ZY=     1.4506
   XZ=     0.8415   YZ=     0.9845   ZZ=    35.5298
   Eigenvalues:    25.9973    28.5428    35.7686
     20  H    Isotropic =    29.7674   Anisotropy =     8.2883
   XX=    29.5266   YX=     2.4338   ZX=     0.6257
   XY=     2.0259   YY=    32.8653   ZY=     2.8653
   XZ=     1.1776   YZ=     3.6209   ZZ=    26.9102
   Eigenvalues:    25.4835    28.5257    35.2929
     21  H    Isotropic =    30.8493   Anisotropy =    10.9915
   XX=    33.5453   YX=    -2.8293   ZX=    -4.9289
   XY=    -2.3825   YY=    28.9643   ZY=     0.8758
   XZ=    -5.2058   YZ=     2.3887   ZZ=    30.0381
   Eigenvalues:    26.4097    27.9611    38.1769
     22  H    Isotropic =    30.5956   Anisotropy =     9.8282
   XX=    31.6343   YX=     4.6748   ZX=    -1.8380
   XY=     4.5694   YY=    32.6009   ZY=    -0.0950
   XZ=    -2.0768   YZ=    -1.5148   ZZ=    27.5517
   Eigenvalues:    26.4097    28.2294    37.1477
     23  H    Isotropic =    29.3823   Anisotropy =     4.4196
   XX=    31.5336   YX=    -0.7661   ZX=    -0.4310
   XY=    -0.8725   YY=    25.4815   ZY=    -2.6892
   XZ=     0.8138   YZ=    -2.1732   ZZ=    31.1317
   Eigenvalues:    24.5091    31.3091    32.3287
     24  H    Isotropic =    30.8600   Anisotropy =    18.3543
   XX=    39.3072   YX=    -0.5233   ZX=     6.6048
   XY=    -1.3285   YY=    25.5390   ZY=    -5.3937
   XZ=     7.1416   YZ=    -5.4128   ZZ=    27.7339
   Eigenvalues:    20.3012    29.1826    43.0963
     25  H    Isotropic =    29.9180   Anisotropy =     7.3386
   XX=    29.8204   YX=     2.5735   ZX=    -0.2845
   XY=     1.9349   YY=    33.7106   ZY=    -0.7242
   XZ=    -0.3580   YZ=    -0.6568   ZZ=    26.2231
   Eigenvalues:    26.1555    28.7881    34.8105
     26  H    Isotropic =    30.5694   Anisotropy =     7.0327
   XX=    30.2338   YX=    -1.5085   ZX=    -1.3442
   XY=    -0.8346   YY=    33.9330   ZY=     2.1476
   XZ=    -1.7574   YZ=     2.6469   ZZ=    27.5413
   Eigenvalues:    26.3986    30.0517    35.2578
     27  H    Isotropic =    30.6976   Anisotropy =    10.0426
   XX=    29.0744   YX=    -0.3591   ZX=    -3.0731
   XY=    -0.2124   YY=    26.6766   ZY=    -1.3846
   XZ=    -1.9343   YZ=    -2.3557   ZZ=    36.3417
   Eigenvalues:    26.1013    28.5988    37.3926
     28  H    Isotropic =    30.4573   Anisotropy =    10.4469
   XX=    37.2694   YX=     0.4941   ZX=    -0.8959
   XY=    -0.3627   YY=    26.0506   ZY=     0.2701
   XZ=    -1.4948   YZ=     0.7163   ZZ=    28.0519
   Eigenvalues:    25.9252    28.0248    37.4219
     29  H    Isotropic =    31.2888   Anisotropy =     6.9788
   XX=    30.2167   YX=    -0.7058   ZX=     1.7062
   XY=    -0.4954   YY=    33.8425   ZY=    -2.5903
   XZ=     2.1578   YZ=    -3.6858   ZZ=    29.8071
   Eigenvalues:    27.3379    30.5871    35.9413
     30  H    Isotropic =    30.0555   Anisotropy =     7.1578
   XX=    30.3430   YX=    -1.7312   ZX=     0.2013
   XY=    -1.3897   YY=    25.5043   ZY=     1.0683
   XZ=    -1.5730   YZ=     2.2177   ZZ=    34.3192
   Eigenvalues:    24.8386    30.5006    34.8274
     31  H    Isotropic =    30.4955   Anisotropy =    11.1246
   XX=    34.1487   YX=     2.3563   ZX=     4.3173
   XY=     2.3127   YY=    26.8743   ZY=     0.8383
   XZ=     5.1391   YZ=     0.9005   ZZ=    30.4635
   Eigenvalues:    26.0531    27.5215    37.9119
 End of Minotr Frequency-dependent properties file   721 does not exist.
 End of Minotr Frequency-dependent properties file   722 does not exist.

 **********************************************************************

            Population analysis using the SCF density.

 **********************************************************************

 Orbital symmetries:
       Occupied  (A) (A) (A) (A) (A) (A) (A) (A) (A) (A) (A) (A)
                 (A) (A) (A) (A) (A) (A) (A) (A) (A) (A) (A) (A)
                 (A) (A) (A) (A) (A) (A) (A) (A) (A) (A) (A) (A)
                 (A) (A) (A) (A) (A) (A) (A) (A)
       Virtual   (A) (A) (A) (A) (A) (A) (A) (A) (A) (A) (A) (A)
                 (A) (A) (A) (A) (A) (A) (A) (A) (A) (A) (A) (A)
                 (A) (A) (A) (A) (A) (A) (A) (A) (A) (A) (A) (A)
                 (A) (A) (A) (A) (A) (A) (A) (A) (A) (A) (A) (A)
                 (A) (A) (A) (A) (A) (A) (A) (A) (A) (A) (A) (A)
                 (A) (A) (A) (A) (A) (A) (A) (A) (A) (A) (A) (A)
                 (A) (A) (A) (A) (A) (A) (A) (A) (A) (A) (A) (A)
                 (A) (A) (A) (A) (A) (A) (A) (A) (A) (A) (A) (A)
                 (A) (A) (A) (A) (A) (A) (A) (A) (A) (A) (A) (A)
                 (A) (A) (A) (A) (A) (A) (A) (A) (A) (A) (A) (A)
                 (A) (A) (A) (A) (A) (A) (A) (A) (A) (A) (A) (A)
                 (A) (A) (A) (A) (A) (A) (A) (A) (A) (A) (A) (A)
                 (A) (A) (A) (A) (A) (A) (A) (A) (A) (A) (A) (A)
                 (A) (A) (A) (A) (A) (A) (A) (A) (A) (A) (A) (A)
                 (A) (A) (A) (A) (A) (A) (A) (A) (A) (A) (A) (A)
                 (A) (A) (A) (A) (A) (A) (A) (A) (A) (A) (A) (A)
                 (A) (A) (A) (A) (A) (A) (A) (A) (A) (A) (A) (A)
                 (A) (A) (A) (A) (A) (A) (A) (A) (A) (A) (A) (A)
                 (A) (A) (A) (A) (A) (A) (A) (A) (A) (A) (A) (A)
                 (A) (A) (A) (A) (A) (A) (A) (A) (A) (A) (A) (A)
                 (A) (A) (A) (A) (A) (A) (A) (A) (A) (A) (A) (A)
                 (A) (A) (A) (A) (A) (A) (A) (A) (A) (A) (A) (A)
                 (A)
 The electronic state is 1-A.
 Alpha  occ. eigenvalues --  -19.24094 -10.29365 -10.25671 -10.24770 -10.24549
 Alpha  occ. eigenvalues --  -10.24120 -10.23737 -10.23713 -10.23658 -10.23594
 Alpha  occ. eigenvalues --  -10.22092  -1.04723  -0.85627  -0.82195  -0.76337
 Alpha  occ. eigenvalues --   -0.75585  -0.70775  -0.69056  -0.62896  -0.62333
 Alpha  occ. eigenvalues --   -0.57873  -0.55112  -0.51562  -0.48995  -0.47399
 Alpha  occ. eigenvalues --   -0.45822  -0.44916  -0.43109  -0.42346  -0.41879
 Alpha  occ. eigenvalues --   -0.40499  -0.39814  -0.39129  -0.38441  -0.37575
 Alpha  occ. eigenvalues --   -0.36359  -0.35550  -0.34199  -0.33381  -0.32985
 Alpha  occ. eigenvalues --   -0.31843  -0.31348  -0.29423  -0.27440
 Alpha virt. eigenvalues --    0.00216   0.01722   0.02162   0.02636   0.03994
 Alpha virt. eigenvalues --    0.04208   0.04607   0.04755   0.05240   0.06686
 Alpha virt. eigenvalues --    0.07036   0.07884   0.07960   0.08399   0.09135
 Alpha virt. eigenvalues --    0.09801   0.10606   0.10998   0.11419   0.11771
 Alpha virt. eigenvalues --    0.11961   0.12278   0.12779   0.13855   0.14446
 Alpha virt. eigenvalues --    0.15500   0.15754   0.16114   0.16915   0.17719
 Alpha virt. eigenvalues --    0.18099   0.18456   0.19303   0.19787   0.19980
 Alpha virt. eigenvalues --    0.20304   0.20572   0.21228   0.21759   0.22514
 Alpha virt. eigenvalues --    0.22921   0.23356   0.23493   0.24503   0.25010
 Alpha virt. eigenvalues --    0.25474   0.25859   0.25998   0.26395   0.26965
 Alpha virt. eigenvalues --    0.27630   0.28638   0.28777   0.29095   0.29569
 Alpha virt. eigenvalues --    0.30395   0.31268   0.32375   0.33086   0.33782
 Alpha virt. eigenvalues --    0.34629   0.34912   0.35409   0.35793   0.36595
 Alpha virt. eigenvalues --    0.37903   0.38661   0.39563   0.40370   0.41013
 Alpha virt. eigenvalues --    0.42939   0.45266   0.45954   0.50133   0.52785
 Alpha virt. eigenvalues --    0.63542   0.65047   0.66237   0.66511   0.67503
 Alpha virt. eigenvalues --    0.68477   0.69374   0.71297   0.71728   0.72791
 Alpha virt. eigenvalues --    0.72852   0.74746   0.75298   0.76160   0.77242
 Alpha virt. eigenvalues --    0.79144   0.81391   0.82600   0.82902   0.83981
 Alpha virt. eigenvalues --    0.85742   0.86788   0.89756   0.89990   0.93198
 Alpha virt. eigenvalues --    0.94596   0.95969   0.97805   0.98681   0.99603
 Alpha virt. eigenvalues --    1.01142   1.01705   1.02799   1.04448   1.04536
 Alpha virt. eigenvalues --    1.05027   1.07849   1.09090   1.10520   1.11604
 Alpha virt. eigenvalues --    1.13427   1.14302   1.15329   1.16076   1.16761
 Alpha virt. eigenvalues --    1.18151   1.18790   1.19766   1.20592   1.22276
 Alpha virt. eigenvalues --    1.24626   1.27117   1.28020   1.29943   1.32689
 Alpha virt. eigenvalues --    1.33897   1.36881   1.40433   1.42924   1.45685
 Alpha virt. eigenvalues --    1.47831   1.50464   1.52897   1.55878   1.57868
 Alpha virt. eigenvalues --    1.59925   1.62092   1.64235   1.65385   1.66730
 Alpha virt. eigenvalues --    1.71424   1.74173   1.75783   1.77310   1.79731
 Alpha virt. eigenvalues --    1.80616   1.84804   1.86646   1.87540   1.87999
 Alpha virt. eigenvalues --    1.88764   1.89922   1.90347   1.92550   1.93929
 Alpha virt. eigenvalues --    1.95309   1.97588   1.98734   2.01563   2.04391
 Alpha virt. eigenvalues --    2.05053   2.06575   2.07407   2.08116   2.09552
 Alpha virt. eigenvalues --    2.10278   2.11642   2.14114   2.14859   2.15822
 Alpha virt. eigenvalues --    2.16330   2.17106   2.17572   2.19225   2.19664
 Alpha virt. eigenvalues --    2.21426   2.22563   2.25468   2.27292   2.31227
 Alpha virt. eigenvalues --    2.32839   2.34398   2.36717   2.37560   2.38673
 Alpha virt. eigenvalues --    2.39134   2.41174   2.41579   2.44072   2.44524
 Alpha virt. eigenvalues --    2.45534   2.49909   2.52027   2.53643   2.56220
 Alpha virt. eigenvalues --    2.58277   2.58879   2.62382   2.64855   2.65427
 Alpha virt. eigenvalues --    2.67753   2.69180   2.70755   2.72040   2.72723
 Alpha virt. eigenvalues --    2.73988   2.74362   2.75345   2.77426   2.78524
 Alpha virt. eigenvalues --    2.78733   2.81196   2.82496   2.84199   2.84694
 Alpha virt. eigenvalues --    2.85980   2.89675   2.90685   2.91345   2.92258
 Alpha virt. eigenvalues --    2.93246   2.94911   2.95856   2.96544   2.98193
 Alpha virt. eigenvalues --    2.99635   3.02765   3.09327   3.12648   3.29026
 Alpha virt. eigenvalues --    3.30202   3.31228   3.36984   3.37500   3.38840
 Alpha virt. eigenvalues --    3.40909   3.45405   3.47720   3.49659   3.50933
 Alpha virt. eigenvalues --    3.51786   3.52525   3.52934   3.55613   3.56882
 Alpha virt. eigenvalues --    3.57917   3.58673   3.63451   3.64332   4.36320
 Alpha virt. eigenvalues --    4.43266   4.45514   4.54591   4.58530   4.59470
 Alpha virt. eigenvalues --    4.70227   4.76646   4.82915   4.90380   4.96600
          Condensed to atoms (all electrons):
              1          2          3          4          5          6
     1  C    6.036430  -0.082582  -0.034614  -0.465231   0.063626  -0.093747
     2  C   -0.082582   6.729464  -0.433205  -0.568758   0.051299  -0.306229
     3  C   -0.034614  -0.433205   7.483645  -2.115923  -0.186349   0.035157
     4  C   -0.465231  -0.568758  -2.115923  10.998685   0.201574  -0.066591
     5  C    0.063626   0.051299  -0.186349   0.201574   5.831278   0.158996
     6  C   -0.093747  -0.306229   0.035157  -0.066591   0.158996   6.468648
     7  C    0.164788  -0.021143   0.033435  -0.018211  -0.126682  -0.098812
     8  O   -0.005576   0.106045  -0.094640   0.136610  -0.034581  -0.114318
     9  C    0.243835   0.280379   1.543963  -3.695389  -0.202139  -0.075677
    10  C   -0.018676   0.017560  -0.302948   0.747213  -0.009237  -0.060596
    11  C   -0.065364  -0.157961  -0.286100   0.740057   0.025786  -0.000432
    12  H    0.279533   0.027284   0.034068   0.001152  -0.009317  -0.029021
    13  H    0.020756   0.203130   0.000484   0.121611  -0.008602   0.020458
    14  H    0.039900   0.059245   0.291014  -0.062318   0.017130  -0.013126
    15  H    0.003961  -0.019651   0.436571  -0.087409  -0.039834  -0.011438
    16  H    0.010795   0.000209  -0.017460   0.267525  -0.026746  -0.021025
    17  H   -0.003758  -0.008119  -0.062992   0.017537   0.381068  -0.030576
    18  H   -0.093348  -0.011164  -0.074994   0.031201   0.433532   0.039341
    19  H    0.019500  -0.025894   0.008080  -0.012431  -0.046722   0.329414
    20  H   -0.091109  -0.066422  -0.014311   0.033599   0.032538   0.433822
    21  H   -0.087369  -0.012011   0.008134   0.001338  -0.006789   0.033357
    22  H   -0.076302  -0.000878  -0.011538   0.000725   0.028450   0.002960
    23  H   -0.070068   0.025964   0.007068   0.004743  -0.016594  -0.029374
    24  H   -0.002583   0.093170  -0.018047  -0.049417   0.011709   0.029042
    25  H    0.001021   0.018157  -0.014770  -0.056550   0.004490  -0.004371
    26  H    0.000381   0.012006  -0.001954  -0.012574   0.000157   0.001295
    27  H   -0.000269   0.008082  -0.002686   0.006746  -0.000987  -0.000026
    28  H   -0.000080  -0.001639  -0.008798   0.054395   0.000200  -0.000191
    29  H   -0.000029   0.024413  -0.004573  -0.000179   0.001859  -0.002197
    30  H   -0.000868  -0.020683   0.027188  -0.030358  -0.000146   0.001313
    31  H   -0.000157  -0.005920  -0.001653   0.050547   0.000885   0.001319
              7          8          9         10         11         12
     1  C    0.164788  -0.005576   0.243835  -0.018676  -0.065364   0.279533
     2  C   -0.021143   0.106045   0.280379   0.017560  -0.157961   0.027284
     3  C    0.033435  -0.094640   1.543963  -0.302948  -0.286100   0.034068
     4  C   -0.018211   0.136610  -3.695389   0.747213   0.740057   0.001152
     5  C   -0.126682  -0.034581  -0.202139  -0.009237   0.025786  -0.009317
     6  C   -0.098812  -0.114318  -0.075677  -0.060596  -0.000432  -0.029021
     7  C    5.419698   0.025767   0.032499  -0.001236  -0.002997  -0.015590
     8  O    0.025767   8.368204  -0.039271  -0.012959   0.018660  -0.000999
     9  C    0.032499  -0.039271   9.666101  -0.941071  -0.703318  -0.002003
    10  C   -0.001236  -0.012959  -0.941071   5.751317   0.088302   0.000309
    11  C   -0.002997   0.018660  -0.703318   0.088302   5.647001   0.000682
    12  H   -0.015590  -0.000999  -0.002003   0.000309   0.000682   0.584773
    13  H   -0.002373  -0.039498  -0.093958   0.023894   0.014163  -0.000138
    14  H   -0.002117  -0.001077   0.002305  -0.000853  -0.005579  -0.000125
    15  H    0.016108   0.007875   0.015637  -0.002728  -0.000889  -0.000060
    16  H    0.004460   0.011318   0.052828  -0.025397   0.007821  -0.000097
    17  H    0.016606   0.000288   0.006446   0.000995  -0.000670  -0.006505
    18  H    0.003540   0.000460  -0.005414   0.000264  -0.001089  -0.001718
    19  H    0.017993   0.010938   0.022973  -0.000050  -0.001123  -0.007095
    20  H    0.002456  -0.002436  -0.000870  -0.001067   0.000390  -0.001297
    21  H    0.416188   0.000851  -0.000780  -0.000012  -0.000032  -0.004360
    22  H    0.412392   0.000518  -0.000197  -0.000137   0.000058  -0.003710
    23  H    0.448645  -0.014117  -0.000177   0.000443   0.001279   0.004743
    24  H   -0.006829   0.198450  -0.020834  -0.005299   0.006324   0.000011
    25  H    0.000229  -0.000416   0.336127   0.006561  -0.018143   0.000000
    26  H    0.000095   0.000048  -0.096799   0.451651  -0.006413   0.000000
    27  H    0.000032   0.000166  -0.093485   0.437942   0.004071   0.000000
    28  H   -0.000029  -0.000146  -0.156622   0.461353   0.011417   0.000000
    29  H    0.000126  -0.014215  -0.106456   0.018147   0.410593   0.000000
    30  H    0.000127  -0.000790  -0.026171  -0.008910   0.418667   0.000000
    31  H   -0.000043   0.000868  -0.122902  -0.002691   0.443948   0.000000
             13         14         15         16         17         18
     1  C    0.020756   0.039900   0.003961   0.010795  -0.003758  -0.093348
     2  C    0.203130   0.059245  -0.019651   0.000209  -0.008119  -0.011164
     3  C    0.000484   0.291014   0.436571  -0.017460  -0.062992  -0.074994
     4  C    0.121611  -0.062318  -0.087409   0.267525   0.017537   0.031201
     5  C   -0.008602   0.017130  -0.039834  -0.026746   0.381068   0.433532
     6  C    0.020458  -0.013126  -0.011438  -0.021025  -0.030576   0.039341
     7  C   -0.002373  -0.002117   0.016108   0.004460   0.016606   0.003540
     8  O   -0.039498  -0.001077   0.007875   0.011318   0.000288   0.000460
     9  C   -0.093958   0.002305   0.015637   0.052828   0.006446  -0.005414
    10  C    0.023894  -0.000853  -0.002728  -0.025397   0.000995   0.000264
    11  C    0.014163  -0.005579  -0.000889   0.007821  -0.000670  -0.001089
    12  H   -0.000138  -0.000125  -0.000060  -0.000097  -0.006505  -0.001718
    13  H    0.627624  -0.000137  -0.000055  -0.002742  -0.000051   0.000014
    14  H   -0.000137   0.561557  -0.030340  -0.003906  -0.004639  -0.002804
    15  H   -0.000055  -0.030340   0.534915   0.005099   0.004612  -0.003135
    16  H   -0.002742  -0.003906   0.005099   0.583098   0.003651   0.000111
    17  H   -0.000051  -0.004639   0.004612   0.003651   0.555810  -0.028235
    18  H    0.000014  -0.002804  -0.003135   0.000111  -0.028235   0.555611
    19  H   -0.004214  -0.000020   0.000065   0.001535   0.002231  -0.000045
    20  H   -0.004644   0.000011  -0.000005   0.000065  -0.000059  -0.000124
    21  H    0.000005  -0.000016   0.000100  -0.000001   0.000075   0.003274
    22  H   -0.000010   0.000003  -0.000046   0.000001  -0.000141   0.000091
    23  H   -0.000085  -0.000033  -0.001050  -0.000028  -0.000082  -0.000111
    24  H   -0.008667  -0.000005   0.000012  -0.000038  -0.000002  -0.000004
    25  H   -0.000038   0.004233  -0.000144  -0.005981   0.000025  -0.000011
    26  H    0.000186   0.000001   0.000002  -0.000272   0.000000   0.000000
    27  H   -0.000069   0.000006   0.000001   0.003855   0.000000   0.000000
    28  H    0.000029  -0.000006   0.000001   0.000082   0.000000   0.000000
    29  H   -0.000182   0.000031   0.000081  -0.000112   0.000000   0.000000
    30  H    0.000014   0.000154   0.000754   0.000017   0.000000   0.000008
    31  H    0.000009  -0.000035  -0.000010  -0.000091   0.000000   0.000000
             19         20         21         22         23         24
     1  C    0.019500  -0.091109  -0.087369  -0.076302  -0.070068  -0.002583
     2  C   -0.025894  -0.066422  -0.012011  -0.000878   0.025964   0.093170
     3  C    0.008080  -0.014311   0.008134  -0.011538   0.007068  -0.018047
     4  C   -0.012431   0.033599   0.001338   0.000725   0.004743  -0.049417
     5  C   -0.046722   0.032538  -0.006789   0.028450  -0.016594   0.011709
     6  C    0.329414   0.433822   0.033357   0.002960  -0.029374   0.029042
     7  C    0.017993   0.002456   0.416188   0.412392   0.448645  -0.006829
     8  O    0.010938  -0.002436   0.000851   0.000518  -0.014117   0.198450
     9  C    0.022973  -0.000870  -0.000780  -0.000197  -0.000177  -0.020834
    10  C   -0.000050  -0.001067  -0.000012  -0.000137   0.000443  -0.005299
    11  C   -0.001123   0.000390  -0.000032   0.000058   0.001279   0.006324
    12  H   -0.007095  -0.001297  -0.004360  -0.003710   0.004743   0.000011
    13  H   -0.004214  -0.004644   0.000005  -0.000010  -0.000085  -0.008667
    14  H   -0.000020   0.000011  -0.000016   0.000003  -0.000033  -0.000005
    15  H    0.000065  -0.000005   0.000100  -0.000046  -0.001050   0.000012
    16  H    0.001535   0.000065  -0.000001   0.000001  -0.000028  -0.000038
    17  H    0.002231  -0.000059   0.000075  -0.000141  -0.000082  -0.000002
    18  H   -0.000045  -0.000124   0.003274   0.000091  -0.000111  -0.000004
    19  H    0.548772  -0.025463  -0.000137   0.000052  -0.000108  -0.000290
    20  H   -0.025463   0.534348   0.000079   0.003034   0.000096  -0.000083
    21  H   -0.000137   0.000079   0.550803  -0.026707  -0.028063  -0.000007
    22  H    0.000052   0.003034  -0.026707   0.540382  -0.025625  -0.000002
    23  H   -0.000108   0.000096  -0.028063  -0.025625   0.503021   0.000539
    24  H   -0.000290  -0.000083  -0.000007  -0.000002   0.000539   0.414294
    25  H    0.000006   0.000002   0.000000   0.000000   0.000000   0.000019
    26  H    0.000007   0.000003   0.000000   0.000000   0.000000  -0.000066
    27  H    0.000000   0.000000   0.000000   0.000000   0.000000   0.000014
    28  H    0.000000   0.000000   0.000000   0.000000   0.000000   0.000006
    29  H    0.000001   0.000001   0.000000   0.000000  -0.000003   0.009734
    30  H    0.000001   0.000000   0.000000   0.000000  -0.000011  -0.001274
    31  H    0.000000   0.000000   0.000000   0.000000   0.000000  -0.000009
             25         26         27         28         29         30
     1  C    0.001021   0.000381  -0.000269  -0.000080  -0.000029  -0.000868
     2  C    0.018157   0.012006   0.008082  -0.001639   0.024413  -0.020683
     3  C   -0.014770  -0.001954  -0.002686  -0.008798  -0.004573   0.027188
     4  C   -0.056550  -0.012574   0.006746   0.054395  -0.000179  -0.030358
     5  C    0.004490   0.000157  -0.000987   0.000200   0.001859  -0.000146
     6  C   -0.004371   0.001295  -0.000026  -0.000191  -0.002197   0.001313
     7  C    0.000229   0.000095   0.000032  -0.000029   0.000126   0.000127
     8  O   -0.000416   0.000048   0.000166  -0.000146  -0.014215  -0.000790
     9  C    0.336127  -0.096799  -0.093485  -0.156622  -0.106456  -0.026171
    10  C    0.006561   0.451651   0.437942   0.461353   0.018147  -0.008910
    11  C   -0.018143  -0.006413   0.004071   0.011417   0.410593   0.418667
    12  H    0.000000   0.000000   0.000000   0.000000   0.000000   0.000000
    13  H   -0.000038   0.000186  -0.000069   0.000029  -0.000182   0.000014
    14  H    0.004233   0.000001   0.000006  -0.000006   0.000031   0.000154
    15  H   -0.000144   0.000002   0.000001   0.000001   0.000081   0.000754
    16  H   -0.005981  -0.000272   0.003855   0.000082  -0.000112   0.000017
    17  H    0.000025   0.000000   0.000000   0.000000   0.000000   0.000000
    18  H   -0.000011   0.000000   0.000000   0.000000   0.000000   0.000008
    19  H    0.000006   0.000007   0.000000   0.000000   0.000001   0.000001
    20  H    0.000002   0.000003   0.000000   0.000000   0.000001   0.000000
    21  H    0.000000   0.000000   0.000000   0.000000   0.000000   0.000000
    22  H    0.000000   0.000000   0.000000   0.000000   0.000000   0.000000
    23  H    0.000000   0.000000   0.000000   0.000000  -0.000003  -0.000011
    24  H    0.000019  -0.000066   0.000014   0.000006   0.009734  -0.001274
    25  H    0.578555   0.004976  -0.003666  -0.004117   0.005429  -0.001662
    26  H    0.004976   0.537840  -0.027964  -0.028007   0.003819   0.000020
    27  H   -0.003666  -0.027964   0.528684  -0.024868   0.000068  -0.000126
    28  H   -0.004117  -0.028007  -0.024868   0.527546  -0.000386   0.000029
    29  H    0.005429   0.003819   0.000068  -0.000386   0.576758  -0.028670
    30  H   -0.001662   0.000020  -0.000126   0.000029  -0.028670   0.519384
    31  H   -0.006173  -0.000073   0.000004   0.002268  -0.028580  -0.025199
             31
     1  C   -0.000157
     2  C   -0.005920
     3  C   -0.001653
     4  C    0.050547
     5  C    0.000885
     6  C    0.001319
     7  C   -0.000043
     8  O    0.000868
     9  C   -0.122902
    10  C   -0.002691
    11  C    0.443948
    12  H    0.000000
    13  H    0.000009
    14  H   -0.000035
    15  H   -0.000010
    16  H   -0.000091
    17  H    0.000000
    18  H    0.000000
    19  H    0.000000
    20  H    0.000000
    21  H    0.000000
    22  H    0.000000
    23  H    0.000000
    24  H   -0.000009
    25  H   -0.006173
    26  H   -0.000073
    27  H    0.000004
    28  H    0.002268
    29  H   -0.028580
    30  H   -0.025199
    31  H    0.519113
 Mulliken atomic charges:
              1
     1  C    0.307206
     2  C    0.085851
     3  C   -0.221253
     4  C   -0.173917
     5  C   -0.529855
     6  C   -0.597374
     7  C   -0.719124
     8  O   -0.512025
     9  C    0.180438
    10  C   -0.612084
    11  C   -0.589107
    12  H    0.149481
    13  H    0.133087
    14  H    0.151543
    15  H    0.170998
    16  H    0.151428
    17  H    0.156486
    18  H    0.154748
    19  H    0.162024
    20  H    0.167444
    21  H    0.152081
    22  H    0.156626
    23  H    0.188988
    24  H    0.350130
    25  H    0.156213
    26  H    0.161637
    27  H    0.164475
    28  H    0.167563
    29  H    0.134523
    30  H    0.177193
    31  H    0.174577
 Sum of Mulliken atomic charges =   0.00000
 Mulliken charges with hydrogens summed into heavy atoms:
              1
     1  C    0.456687
     2  C    0.218938
     3  C    0.101288
     4  C   -0.022488
     5  C   -0.218622
     6  C   -0.267905
     7  C   -0.221429
     8  O   -0.161895
     9  C    0.336650
    10  C   -0.118410
    11  C   -0.102815
 Sum of Mulliken charges with hydrogens summed into heavy atoms =   0.00000
 Electronic spatial extent (au):  <R**2>=           2025.6196
 Charge=              0.0000 electrons
 Dipole moment (field-independent basis, Debye):
    X=              1.7257    Y=              0.8470    Z=             -0.8229  Tot=              2.0911
 Quadrupole moment (field-independent basis, Debye-Ang):
   XX=            -70.4730   YY=            -73.4294   ZZ=            -71.6430
   XY=             -2.0090   XZ=              2.5071   YZ=              0.8475
 Traceless Quadrupole moment (field-independent basis, Debye-Ang):
   XX=              1.3755   YY=             -1.5809   ZZ=              0.2055
   XY=             -2.0090   XZ=              2.5071   YZ=              0.8475
 Octapole moment (field-independent basis, Debye-Ang**2):
  XXX=              6.2979  YYY=             -3.0677  ZZZ=              1.1892  XYY=              5.4315
  XXY=             -1.2980  XXZ=              1.7998  XZZ=              2.1257  YZZ=             -1.3280
  YYZ=             -0.3216  XYZ=             -4.0472
 Hexadecapole moment (field-independent basis, Debye-Ang**3):
 XXXX=          -1836.3518 YYYY=           -527.9603 ZZZZ=           -452.9752 XXXY=              8.2995
 XXXZ=             18.2512 YYYX=             -6.2136 YYYZ=             -1.8748 ZZZX=              5.0305
 ZZZY=             -8.9630 XXYY=           -387.3723 XXZZ=           -390.1509 YYZZ=           -162.1356
 XXYZ=              0.9455 YYXZ=              5.8485 ZZXY=             -3.8830
 N-N= 7.010543046257D+02 E-N=-2.487535312239D+03  KE= 4.636959081698D+02
 1\1\GINC-COMPUTE-10-6\SP\RmPW1PW91\6-31+G(d,p)\C10H20O1\ASAROTTI.IQUIR
 \19-Sep-2024\0\\# mPW1PW91/6-31+G** nmr scrf=(pcm,solvent=benzene)\\co
 mment\\0,1\C,0,-2.352163,0.162771,-0.42079\C,0,0.004303,-0.935753,-0.5
 215\C,0,-0.250888,1.401175,0.39604\C,0,0.652165,0.46661,-0.429879\C,0,
 -1.644809,1.524147,-0.240535\C,0,-1.406182,-0.840622,-1.122367\C,0,-2.
 941702,-0.373135,0.894705\O,0,-0.124783,-1.581739,0.752395\C,0,2.14832
 1,0.524924,-0.006045\C,0,3.068282,-0.176943,-1.018779\C,0,2.472868,0.0
 48212,1.423474\H,0,-3.19977,0.325,-1.102775\H,0,0.609263,-1.571754,-1.
 187837\H,0,0.211488,2.395111,0.46642\H,0,-0.340752,1.021905,1.420627\H
 ,0,0.64147,0.851126,-1.463662\H,0,-1.535019,2.001815,-1.225719\H,0,-2.
 276725,2.193545,0.358124\H,0,-1.291881,-0.54287,-2.174113\H,0,-1.85100
 4,-1.843364,-1.12344\H,0,-3.658702,0.344502,1.313462\H,0,-3.475615,-1.
 315518,0.722234\H,0,-2.168311,-0.57187,1.639925\H,0,0.76456,-1.732282,
 1.102287\H,0,2.401197,1.595702,-0.035393\H,0,2.906854,-1.26221,-1.0329
 37\H,0,2.902958,0.196285,-2.0365\H,0,4.122741,-0.009648,-0.768584\H,0,
 2.504524,-1.047878,1.501254\H,0,1.759488,0.422328,2.164081\H,0,3.47032
 3,0.395671,1.717445\\Version=AM64L-G09RevC.01\State=1-A\HF=-468.276868
 1\RMSD=2.806e-09\Dipole=0.6789364,0.333216,-0.3237653\Quadrupole=1.022
 6398,-1.1753887,0.1527488,-1.4936074,1.8640016,0.6301181\PG=C01 [X(C10
 H20O1)]\\@


 When cryptography is outlawed, bayl bhgynjf jvyy unir cevinpl.
 Job cpu time:  0 days  0 hours 13 minutes 52.4 seconds.
 File lengths (MBytes):  RWF=    119 Int=      0 D2E=      0 Chk=      7 Scr=      1
 Normal termination of Gaussian 09 at Thu Sep 19 10:30:06 2024.
