 Entering Gaussian System, Link 0=g09
 Input=/home/asarotti.iquir/SCF2/01_Mentol02_OptB_NMR_benzene.gjc
 Output=/home/asarotti.iquir/SCF2/01_Mentol02_OptB_NMR_benzene.log
 Initial command:
 /opt/ohpc/pub/apps/software/Gaussian/09/AMD64.SSE4a-enabled/g09/l1.exe /local/asarotti.iquir/Gau-2479598.inp -scrdir=/local/asarotti.iquir/
 Entering Link 1 = /opt/ohpc/pub/apps/software/Gaussian/09/AMD64.SSE4a-enabled/g09/l1.exe PID=   2479600.
  
 Copyright (c) 1988,1990,1992,1993,1995,1998,2003,2009,2011,
            Gaussian, Inc.  All Rights Reserved.
  
 This is part of the Gaussian(R) 09 program.  It is based on
 the Gaussian(R) 03 system (copyright 2003, Gaussian, Inc.),
 the Gaussian(R) 98 system (copyright 1998, Gaussian, Inc.),
 the Gaussian(R) 94 system (copyright 1995, Gaussian, Inc.),
 the Gaussian 92(TM) system (copyright 1992, Gaussian, Inc.),
 the Gaussian 90(TM) system (copyright 1990, Gaussian, Inc.),
 the Gaussian 88(TM) system (copyright 1988, Gaussian, Inc.),
 the Gaussian 86(TM) system (copyright 1986, Carnegie Mellon
 University), and the Gaussian 82(TM) system (copyright 1983,
 Carnegie Mellon University). Gaussian is a federally registered
 trademark of Gaussian, Inc.
  
 This software contains proprietary and confidential information,
 including trade secrets, belonging to Gaussian, Inc.
  
 This software is provided under written license and may be
 used, copied, transmitted, or stored only in accord with that
 written license.
  
 The following legend is applicable only to US Government
 contracts under FAR:
  
                    RESTRICTED RIGHTS LEGEND
  
 Use, reproduction and disclosure by the US Government is
 subject to restrictions as set forth in subparagraphs (a)
 and (c) of the Commercial Computer Software - Restricted
 Rights clause in FAR 52.227-19.
  
 Gaussian, Inc.
 340 Quinnipiac St., Bldg. 40, Wallingford CT 06492
  
  
 ---------------------------------------------------------------
 Warning -- This program may not be used in any manner that
 competes with the business of Gaussian, Inc. or will provide
 assistance to any competitor of Gaussian, Inc.  The licensee
 of this program is prohibited from giving any competitor of
 Gaussian, Inc. access to this program.  By using this program,
 the user acknowledges that Gaussian, Inc. is engaged in the
 business of creating and licensing software in the field of
 computational chemistry and represents and warrants to the
 licensee that it is not a competitor of Gaussian, Inc. and that
 it will not use this program in any manner prohibited above.
 ---------------------------------------------------------------
  

 Cite this work as:
 Gaussian 09, Revision C.01,
 M. J. Frisch, G. W. Trucks, H. B. Schlegel, G. E. Scuseria, 
 M. A. Robb, J. R. Cheeseman, G. Scalmani, V. Barone, B. Mennucci, 
 G. A. Petersson, H. Nakatsuji, M. Caricato, X. Li, H. P. Hratchian, 
 A. F. Izmaylov, J. Bloino, G. Zheng, J. L. Sonnenberg, M. Hada, 
 M. Ehara, K. Toyota, R. Fukuda, J. Hasegawa, M. Ishida, T. Nakajima, 
 Y. Honda, O. Kitao, H. Nakai, T. Vreven, J. A. Montgomery, Jr., 
 J. E. Peralta, F. Ogliaro, M. Bearpark, J. J. Heyd, E. Brothers, 
 K. N. Kudin, V. N. Staroverov, T. Keith, R. Kobayashi, J. Normand, 
 K. Raghavachari, A. Rendell, J. C. Burant, S. S. Iyengar, J. Tomasi, 
 M. Cossi, N. Rega, J. M. Millam, M. Klene, J. E. Knox, J. B. Cross, 
 V. Bakken, C. Adamo, J. Jaramillo, R. Gomperts, R. E. Stratmann, 
 O. Yazyev, A. J. Austin, R. Cammi, C. Pomelli, J. W. Ochterski, 
 R. L. Martin, K. Morokuma, V. G. Zakrzewski, G. A. Voth, 
 P. Salvador, J. J. Dannenberg, S. Dapprich, A. D. Daniels, 
 O. Farkas, J. B. Foresman, J. V. Ortiz, J. Cioslowski, 
 and D. J. Fox, Gaussian, Inc., Wallingford CT, 2010.
 
 ******************************************
 Gaussian 09:  AM64L-G09RevC.01 23-Sep-2011
                19-Sep-2024 
 ******************************************
 %nprocshared=4
 Will use up to    4 processors via shared memory.
 %mem=100mw
 --------------------------------------------------
 # mPW1PW91/6-31+G** nmr scrf=(pcm,solvent=benzene)
 --------------------------------------------------
 1/38=1/1;
 2/12=2,17=6,18=5,40=1/2;
 3/5=1,6=6,7=111,11=2,16=1,25=1,30=1,70=2201,72=12,74=-7/1,2,8,3;
 4//1;
 5/5=2,38=5,53=12/2;
 8/6=1,10=90,11=11/1;
 10/13=100,45=16/2;
 6/7=2,8=2,9=2,10=2,28=1/1;
 99/9=1/99;
 -------
 comment
 -------
 Charge =  0 Multiplicity = 1
 Symbolic Z-Matrix:
 6                     2.24244  -0.27301   0.35961 
 6                     0.11239   1.14629   0.19072 
 6                    -0.04717  -1.37236   0.17103 
 6                    -0.68024  -0.06479  -0.34961 
 6                     1.44534  -1.4746   -0.17513 
 6                     1.60745   1.03612  -0.13998 
 6                     3.72868  -0.35826  -0.00595 
 8                    -0.41646   2.39399  -0.26828 
 6                    -2.2085    0.05683  -0.1004 
 6                    -2.6138   -0.08518   1.37599 
 6                    -3.0081   -0.92261  -0.97464 
 1                     2.1625   -0.28415   1.45866 
 1                    -0.0031    1.19404   1.28086 
 1                    -0.58242  -2.2382   -0.23688 
 1                    -0.16079  -1.42582   1.26278 
 1                    -0.54156  -0.05334  -1.44627 
 1                     1.56658  -1.52671  -1.26815 
 1                     1.86066  -2.40823   0.22754 
 1                     1.72795   1.09534  -1.23514 
 1                     2.12746   1.90637   0.27974 
 1                     3.86619  -0.35272  -1.095 
 1                     4.29012   0.48937   0.40482 
 1                     4.18017  -1.27953   0.3814 
 1                    -0.303     2.41321  -1.23291 
 1                    -2.4774    1.07372  -0.41285 
 1                    -2.42834  -1.09754   1.75466 
 1                    -2.07706   0.62032   2.01979 
 1                    -3.68498   0.11583   1.495 
 1                    -2.81438  -1.96761  -0.70247 
 1                    -2.76243  -0.8045   -2.03743 
 1                    -4.08548  -0.75228  -0.86173 
 
                          Input orientation:                          
 ---------------------------------------------------------------------
 Center     Atomic      Atomic             Coordinates (Angstroms)
 Number     Number       Type             X           Y           Z
 ---------------------------------------------------------------------
      1          6           0        2.242442   -0.273009    0.359605
      2          6           0        0.112388    1.146292    0.190722
      3          6           0       -0.047168   -1.372363    0.171034
      4          6           0       -0.680244   -0.064791   -0.349613
      5          6           0        1.445342   -1.474601   -0.175130
      6          6           0        1.607451    1.036121   -0.139980
      7          6           0        3.728684   -0.358263   -0.005954
      8          8           0       -0.416457    2.393988   -0.268275
      9          6           0       -2.208503    0.056832   -0.100402
     10          6           0       -2.613797   -0.085181    1.375991
     11          6           0       -3.008101   -0.922614   -0.974641
     12          1           0        2.162496   -0.284151    1.458658
     13          1           0       -0.003104    1.194042    1.280860
     14          1           0       -0.582418   -2.238198   -0.236877
     15          1           0       -0.160785   -1.425816    1.262784
     16          1           0       -0.541558   -0.053341   -1.446273
     17          1           0        1.566576   -1.526714   -1.268147
     18          1           0        1.860656   -2.408225    0.227536
     19          1           0        1.727953    1.095343   -1.235140
     20          1           0        2.127457    1.906368    0.279735
     21          1           0        3.866185   -0.352721   -1.095003
     22          1           0        4.290118    0.489365    0.404817
     23          1           0        4.180170   -1.279533    0.381402
     24          1           0       -0.302998    2.413210   -1.232911
     25          1           0       -2.477401    1.073716   -0.412854
     26          1           0       -2.428337   -1.097545    1.754659
     27          1           0       -2.077057    0.620320    2.019785
     28          1           0       -3.684978    0.115828    1.494998
     29          1           0       -2.814381   -1.967606   -0.702470
     30          1           0       -2.762428   -0.804497   -2.037426
     31          1           0       -4.085479   -0.752280   -0.861729
 ---------------------------------------------------------------------
                    Distance matrix (angstroms):
                    1          2          3          4          5
     1  C    0.000000
     2  C    2.565164   0.000000
     3  C    2.546851   2.523781   0.000000
     4  C    3.014704   1.544976   1.543244   0.000000
     5  C    1.537899   2.963055   1.535535   2.556585   0.000000
     6  C    1.538382   1.535160   2.938586   2.547450   2.516196
     7  C    1.532911   3.921730   3.913666   4.432028   2.547250
     8  O    3.817964   1.430769   3.809825   2.474226   4.294293
     9  C    4.486793   2.580351   2.605311   1.553214   3.962506
    10  C    4.965015   3.217681   3.113895   2.591670   4.562135
    11  C    5.456226   3.921211   3.206551   2.558405   4.558186
    12  H    1.102013   2.802993   2.779352   3.376260   2.144935
    13  H    2.836093   1.097278   2.796442   2.168322   3.367426
    14  H    3.492505   3.481432   1.096610   2.178526   2.167649
    15  H    2.814284   2.799943   1.098947   2.173028   2.156298
    16  H    3.325674   2.132256   2.144743   1.105454   2.753826
    17  H    2.162903   3.374600   2.167772   2.833571   1.100954
    18  H    2.173097   3.961362   2.171634   3.504420   1.098308
    19  H    2.163400   2.155395   3.349321   2.815934   2.794298
    20  H    2.183869   2.155491   3.935846   3.487798   3.478956
    21  H    2.181463   4.241594   4.237553   4.616116   2.822280
    22  H    2.185460   4.234480   4.725752   5.057742   3.505175
    23  H    2.183656   4.740025   4.233587   5.062964   2.797689
    24  H    4.028789   1.950476   4.045624   2.657634   4.392114
    25  H    4.968629   2.660184   3.497179   2.128373   4.683839
    26  H    4.943907   3.733093   2.872866   2.924102   4.344151
    27  H    4.712993   2.900998   3.392509   2.834521   4.649047
    28  H    6.047695   4.145236   4.147440   3.530388   5.624853
    29  H    5.437934   4.365791   2.962227   2.880929   4.320461
    30  H    5.574671   4.127322   3.545759   2.780534   4.650002
    31  H    6.462503   4.725920   4.214150   3.511485   5.619888
                    6          7          8          9         10
     6  C    0.000000
     7  C    2.542027   0.000000
     8  O    2.440587   4.982559   0.000000
     9  C    3.939807   5.952429   2.949900   0.000000
    10  C    4.623248   6.497031   3.698404   1.537585   0.000000
    11  C    5.082974   6.829430   4.267953   1.537194   2.526310
    12  H    2.146354   2.145583   4.099479   4.653232   4.781150
    13  H    2.153512   4.241672   2.002636   2.839880   2.908811
    14  H    3.940315   4.708830   4.635264   2.816015   3.370953
    15  H    3.339991   4.228160   4.123156   2.872224   2.797747
    16  H    2.740724   4.516909   2.718961   2.145277   3.501480
    17  H    2.800456   2.762810   4.506004   4.257049   5.152184
    18  H    3.473140   2.783234   5.337820   4.768868   5.170707
    19  H    1.103360   2.761665   2.686969   4.226325   5.202157
    20  H    1.097222   2.788207   2.647562   4.729253   5.258092
    21  H    2.818303   1.097709   5.154504   6.169181   6.940285
    22  H    2.791496   1.096546   5.121766   6.532565   6.995522
    23  H    3.500425   1.096642   5.919951   6.544704   6.969481
    24  H    2.596283   5.043902   0.971476   3.235126   4.288137
    25  H    4.094129   6.382133   2.451838   1.097263   2.135793
    26  H    4.942648   6.446333   4.508961   2.195943   1.096661
    27  H    4.291046   6.226385   3.337470   2.197724   1.095578
    28  H    5.615149   7.578918   4.356877   2.174571   1.096356
    29  H    5.375069   6.773981   4.996205   2.197254   2.811362
    30  H    5.107252   6.816197   4.343246   2.191069   3.491550
    31  H    6.010720   7.870752   4.869591   2.181128   2.760120
                   11         12         13         14         15
    11  C    0.000000
    12  H    5.750100   0.000000
    13  H    4.312485   2.628020   0.000000
    14  H    2.856395   3.771961   3.797289   0.000000
    15  H    3.656021   2.596035   2.624661   1.756907   0.000000
    16  H    2.657425   3.975400   3.046826   2.497580   3.060664
    17  H    4.623716   3.055249   4.045225   2.487549   3.065872
    18  H    5.230398   2.473552   4.190396   2.492629   2.474488
    19  H    5.154631   3.057512   3.055578   4.176941   4.020348
    20  H    5.995878   2.487863   2.459461   4.978729   4.160034
    21  H    6.898918   3.070577   4.796728   4.907288   4.788233
    22  H    7.560462   2.497135   4.437992   5.620763   4.920830
    23  H    7.323762   2.494449   4.942406   4.897300   4.431944
    24  H    4.302558   4.538608   2.809867   4.765056   4.581139
    25  H    2.140696   5.184111   3.000882   3.819778   3.797648
    26  H    2.795676   4.671721   3.370106   2.945288   2.343394
    27  H    3.494864   4.371126   2.275181   3.936698   2.903760
    28  H    2.763266   5.861250   3.842473   4.262242   3.853638
    29  H    1.097093   5.681003   4.672568   2.296009   3.346241
    30  H    1.097187   6.062033   4.755949   3.170161   4.248055
    31  H    1.096588   6.681357   5.004462   3.856142   4.513361
                   16         17         18         19         20
    16  H    0.000000
    17  H    2.578136   0.000000
    18  H    3.757359   1.760856   0.000000
    19  H    2.552397   2.627226   3.798950   0.000000
    20  H    3.734060   3.807437   4.323149   1.764146   0.000000
    21  H    4.431841   2.587748   3.161701   2.586226   3.164895
    22  H    5.202514   3.779030   3.785465   3.101831   2.588561
    23  H    5.209478   3.100481   2.584137   3.777117   3.791297
    24  H    2.487229   4.361141   5.482749   2.421062   2.907249
    25  H    2.466921   4.883391   5.599353   4.285047   4.730508
    26  H    3.859568   5.028009   4.737663   5.569776   5.652800
    27  H    3.850342   5.356894   5.281082   5.029740   4.728597
    28  H    4.308223   6.157251   6.223452   6.141085   6.202201
    29  H    3.063230   4.439275   4.786964   5.504379   6.355640
    30  H    2.417842   4.455745   5.392115   4.941313   6.052190
    31  H    3.659178   5.719322   6.267789   6.111394   6.853607
                   21         22         23         24         25
    21  H    0.000000
    22  H    1.771521   0.000000
    23  H    1.771253   1.772466   0.000000
    24  H    5.005145   5.242141   6.028362   0.000000
    25  H    6.537670   6.841737   7.105764   2.682306   0.000000
    26  H    6.949557   7.034060   6.752134   5.076223   3.068370
    27  H    6.780180   6.570098   6.741412   4.116038   2.506706
    28  H    7.996731   8.057927   8.065214   4.915002   2.452691
    29  H    6.884177   7.598467   7.111397   5.077397   3.073609
    30  H    6.710497   7.574763   7.367228   4.129126   2.499632
    31  H    7.965113   8.561334   8.375221   4.946238   2.474200
                   26         27         28         29         30
    26  H    0.000000
    27  H    1.773344   0.000000
    28  H    1.766025   1.765028   0.000000
    29  H    2.635056   3.827751   3.150794   0.000000
    30  H    3.818036   4.354400   3.765118   1.771335   0.000000
    31  H    3.116218   3.771063   2.543261   1.765806   1.770721
                   31
    31  H    0.000000
 Stoichiometry    C10H20O
 Framework group  C1[X(C10H20O)]
 Deg. of freedom    87
 Full point group                 C1      NOp   1
 Largest Abelian subgroup         C1      NOp   1
 Largest concise Abelian subgroup C1      NOp   1
                         Standard orientation:                         
 ---------------------------------------------------------------------
 Center     Atomic      Atomic             Coordinates (Angstroms)
 Number     Number       Type             X           Y           Z
 ---------------------------------------------------------------------
      1          6           0        2.242442   -0.273009    0.359605
      2          6           0        0.112388    1.146292    0.190722
      3          6           0       -0.047168   -1.372363    0.171034
      4          6           0       -0.680244   -0.064791   -0.349613
      5          6           0        1.445342   -1.474601   -0.175130
      6          6           0        1.607451    1.036121   -0.139980
      7          6           0        3.728684   -0.358263   -0.005954
      8          8           0       -0.416457    2.393988   -0.268275
      9          6           0       -2.208503    0.056832   -0.100402
     10          6           0       -2.613797   -0.085181    1.375991
     11          6           0       -3.008101   -0.922614   -0.974641
     12          1           0        2.162496   -0.284151    1.458658
     13          1           0       -0.003104    1.194042    1.280860
     14          1           0       -0.582418   -2.238198   -0.236877
     15          1           0       -0.160785   -1.425816    1.262784
     16          1           0       -0.541558   -0.053341   -1.446273
     17          1           0        1.566576   -1.526714   -1.268147
     18          1           0        1.860656   -2.408225    0.227536
     19          1           0        1.727953    1.095343   -1.235140
     20          1           0        2.127457    1.906368    0.279735
     21          1           0        3.866185   -0.352721   -1.095003
     22          1           0        4.290118    0.489365    0.404817
     23          1           0        4.180170   -1.279533    0.381402
     24          1           0       -0.302998    2.413210   -1.232911
     25          1           0       -2.477401    1.073716   -0.412854
     26          1           0       -2.428337   -1.097545    1.754659
     27          1           0       -2.077057    0.620320    2.019785
     28          1           0       -3.684978    0.115828    1.494998
     29          1           0       -2.814381   -1.967606   -0.702470
     30          1           0       -2.762428   -0.804497   -2.037426
     31          1           0       -4.085479   -0.752280   -0.861729
 ---------------------------------------------------------------------
 Rotational constants (GHZ):      1.7555119      0.6805989      0.5660093
 Standard basis: 6-31+G(d,p) (6D, 7F)
 There are   309 symmetry adapted basis functions of A   symmetry.
 Integral buffers will be    131072 words long.
 Raffenetti 2 integral format.
 Two-electron integral symmetry is turned on.
   309 basis functions,   492 primitive gaussians,   309 cartesian basis functions
    44 alpha electrons       44 beta electrons
       nuclear repulsion energy       686.1618587149 Hartrees.
 NAtoms=   31 NActive=   31 NUniq=   31 SFac= 1.00D+00 NAtFMM=   60 NAOKFM=F Big=F
 ------------------------------------------------------------------------------
 Polarizable Continuum Model (PCM)
 =================================
 Model                : PCM.
 Atomic radii         : UFF (Universal Force Field).
 Polarization charges : Total charges.
 Charge compensation  : None.
 Solution method      : Matrix inversion.
 Cavity type          : Scaled VdW (van der Waals Surface) (Alpha=1.100).
 Cavity algorithm     : GePol (No added spheres)
                        Default sphere list used, NSphG=   31.
                        Lebedev-Laikov grids with approx.  5.0 points / Ang**2.
                        Smoothing algorithm: Karplus/York (Gamma=1.0000).
                        Polarization charges: spherical gaussians, with
                                              point-specific exponents (IZeta= 3).
                        Self-potential: point-specific (ISelfS= 7).
                        Self-field    : sphere-specific E.n sum rule (ISelfD= 2).
 Solvent              : Benzene, Eps=   2.270600 Eps(inf)=   2.253301
 ------------------------------------------------------------------------------
 One-electron integrals computed using PRISM.
 NBasis=   309 RedAO= T  NBF=   309
 NBsUse=   309 1.00D-06 NBFU=   309
 Harris functional with IExCor=  908 diagonalized for initial guess.
 ExpMin= 4.38D-02 ExpMax= 5.48D+03 ExpMxC= 8.25D+02 IAcc=2 IRadAn=         4 AccDes= 0.00D+00
 HarFok:  IExCor=  908 AccDes= 0.00D+00 IRadAn=         4 IDoV= 1
 ScaDFX=  1.000000  1.000000  1.000000  1.000000
 FoFCou: FMM=F IPFlag=           0 FMFlag=      100000 FMFlg1=           0
         NFxFlg=           0 DoJE=T BraDBF=F KetDBF=T FulRan=T
         Omega=  0.000000  0.000000  1.000000  0.000000  0.000000 ICntrl=     500 IOpCl=  0
         NMat0=    1 NMatS0=    1 NMatT0=    0 NMatD0=    1 NMtDS0=    0 NMtDT0=    0
         I1Cent=           4 NGrid=           0.
 Petite list used in FoFCou.
 Initial guess orbital symmetries:
       Occupied  (A) (A) (A) (A) (A) (A) (A) (A) (A) (A) (A) (A)
                 (A) (A) (A) (A) (A) (A) (A) (A) (A) (A) (A) (A)
                 (A) (A) (A) (A) (A) (A) (A) (A) (A) (A) (A) (A)
                 (A) (A) (A) (A) (A) (A) (A) (A)
       Virtual   (A) (A) (A) (A) (A) (A) (A) (A) (A) (A) (A) (A)
                 (A) (A) (A) (A) (A) (A) (A) (A) (A) (A) (A) (A)
                 (A) (A) (A) (A) (A) (A) (A) (A) (A) (A) (A) (A)
                 (A) (A) (A) (A) (A) (A) (A) (A) (A) (A) (A) (A)
                 (A) (A) (A) (A) (A) (A) (A) (A) (A) (A) (A) (A)
                 (A) (A) (A) (A) (A) (A) (A) (A) (A) (A) (A) (A)
                 (A) (A) (A) (A) (A) (A) (A) (A) (A) (A) (A) (A)
                 (A) (A) (A) (A) (A) (A) (A) (A) (A) (A) (A) (A)
                 (A) (A) (A) (A) (A) (A) (A) (A) (A) (A) (A) (A)
                 (A) (A) (A) (A) (A) (A) (A) (A) (A) (A) (A) (A)
                 (A) (A) (A) (A) (A) (A) (A) (A) (A) (A) (A) (A)
                 (A) (A) (A) (A) (A) (A) (A) (A) (A) (A) (A) (A)
                 (A) (A) (A) (A) (A) (A) (A) (A) (A) (A) (A) (A)
                 (A) (A) (A) (A) (A) (A) (A) (A) (A) (A) (A) (A)
                 (A) (A) (A) (A) (A) (A) (A) (A) (A) (A) (A) (A)
                 (A) (A) (A) (A) (A) (A) (A) (A) (A) (A) (A) (A)
                 (A) (A) (A) (A) (A) (A) (A) (A) (A) (A) (A) (A)
                 (A) (A) (A) (A) (A) (A) (A) (A) (A) (A) (A) (A)
                 (A) (A) (A) (A) (A) (A) (A) (A) (A) (A) (A) (A)
                 (A) (A) (A) (A) (A) (A) (A) (A) (A) (A) (A) (A)
                 (A) (A) (A) (A) (A) (A) (A) (A) (A) (A) (A) (A)
                 (A) (A) (A) (A) (A) (A) (A) (A) (A) (A) (A) (A)
                 (A)
 The electronic state of the initial guess is 1-A.
 Requested convergence on RMS density matrix=1.00D-08 within 128 cycles.
 Requested convergence on MAX density matrix=1.00D-06.
 Requested convergence on             energy=1.00D-06.
 No special actions if energy rises.
 Error on total polarization charges =  0.00936
 SCF Done:  E(RmPW1PW91) =  -468.285823360     A.U. after   12 cycles
             Convg  =    0.7774D-08             -V/T =  2.0099
 Range of M.O.s used for correlation:     1   309
 NBasis=   309 NAE=    44 NBE=    44 NFC=     0 NFV=     0
 NROrb=    309 NOA=    44 NOB=    44 NVA=   265 NVB=   265

 **** Warning!!: The largest alpha MO coefficient is  0.79372166D+02

 NEqPCM:  Using equilibrium solvation (IEInf=0, Eps=   2.2706, EpsInf=   2.2533)
          Differentiating once with respect to magnetic field using GIAOs.
          Electric field/nuclear overlap derivatives assumed to be zero.
 FoFCou: FMM=F IPFlag=           0 FMFlag=    10101102 FMFlg1=           0
         NFxFlg=    40000000 DoJE=F BraDBF=F KetDBF=T FulRan=T
         Omega=  0.000000  0.000000  1.000000  0.000000  0.000000 ICntrl=    6100 IOpCl=  0
         NMat0=    1 NMatS0=    1 NMatT0=    0 NMatD0=    1 NMtDS0=    0 NMtDT0=    0
         I1Cent=           7 NGrid=        1945.
 Symmetry not used in FoFCou.
          There are     3 degrees of freedom in the 1st order CPHF.  IDoFFX=0.
      3 vectors produced by pass  0 Test12= 3.89D-13 3.33D-08 XBig12= 3.18D+01 8.45D-01.
 AX will form     3 AO Fock derivatives at one time.
      3 vectors produced by pass  1 Test12= 3.89D-13 3.33D-08 XBig12= 7.35D-02 3.83D-02.
      3 vectors produced by pass  2 Test12= 3.89D-13 3.33D-08 XBig12= 1.51D-04 3.44D-03.
      3 vectors produced by pass  3 Test12= 3.89D-13 3.33D-08 XBig12= 5.03D-07 1.60D-04.
      3 vectors produced by pass  4 Test12= 3.89D-13 3.33D-08 XBig12= 1.35D-09 6.54D-06.
      3 vectors produced by pass  5 Test12= 3.89D-13 3.33D-08 XBig12= 3.07D-12 2.70D-07.
 Inverted reduced A of dimension    18 with in-core refinement.
 Calculating GIAO nuclear magnetic shielding tensors.
 SCF GIAO Magnetic shielding tensor (ppm):
      1  C    Isotropic =   161.4861   Anisotropy =    11.1094
   XX=   166.1538   YX=     2.3377   ZX=    -0.2921
   XY=     6.3569   YY=   161.9904   ZY=     1.2970
   XZ=    -1.7779   YZ=     2.1884   ZZ=   156.3141
   Eigenvalues:   155.2803   160.2857   168.8923
      2  C    Isotropic =   123.5975   Anisotropy =    53.2174
   XX=   118.3299   YX=    -9.7753   ZX=    10.2859
   XY=   -10.5279   YY=   145.1521   ZY=   -17.6473
   XZ=    11.0014   YZ=   -24.2999   ZZ=   107.3106
   Eigenvalues:    96.3186   115.3982   159.0758
      3  C    Isotropic =   170.8458   Anisotropy =    12.7608
   XX=   178.8356   YX=     0.3059   ZX=    -2.2981
   XY=    -1.5373   YY=   168.7988   ZY=    -2.7121
   XZ=    -3.0946   YZ=     0.2478   ZZ=   164.9030
   Eigenvalues:   164.0308   169.1536   179.3530
      4  C    Isotropic =   142.2561   Anisotropy =    12.8838
   XX=   144.6576   YX=    13.7915   ZX=    -2.9055
   XY=     0.6033   YY=   136.6755   ZY=    -0.0589
   XZ=    -6.0752   YZ=     3.4414   ZZ=   145.4353
   Eigenvalues:   131.4038   144.5193   150.8453
      5  C    Isotropic =   159.9145   Anisotropy =    20.0260
   XX=   166.7801   YX=     7.4117   ZX=    -1.7179
   XY=    11.5763   YY=   158.1874   ZY=     4.6924
   XZ=     3.7134   YZ=     1.6850   ZZ=   154.7761
   Eigenvalues:   150.8144   155.6640   173.2652
      6  C    Isotropic =   149.1499   Anisotropy =    37.3793
   XX=   163.4568   YX=   -18.2661   ZX=    -2.3259
   XY=   -14.8947   YY=   147.4570   ZY=   -11.4837
   XZ=    -2.1135   YZ=    -5.7020   ZZ=   136.5360
   Eigenvalues:   128.2481   145.1323   174.0694
      7  C    Isotropic =   172.9614   Anisotropy =    38.1501
   XX=   197.4651   YX=    -2.1173   ZX=    -2.6241
   XY=    -2.2086   YY=   163.1514   ZY=     0.1325
   XZ=    -8.6237   YZ=     0.8703   ZZ=   158.2676
   Eigenvalues:   157.4698   163.0195   198.3948
      8  O    Isotropic =   273.0625   Anisotropy =    65.9984
   XX=   245.5914   YX=   -10.4969   ZX=    -4.9965
   XY=   -13.8765   YY=   262.6806   ZY=    -7.0575
   XZ=     4.0917   YZ=   -28.9466   ZZ=   310.9154
   Eigenvalues:   238.0819   264.0441   317.0614
      9  C    Isotropic =   167.8344   Anisotropy =    10.8838
   XX=   173.8213   YX=    -1.1927   ZX=    -0.7534
   XY=     1.5063   YY=   158.7927   ZY=     4.5816
   XZ=    -3.0662   YZ=     5.1853   ZZ=   170.8893
   Eigenvalues:   157.0303   171.3827   175.0903
     10  C    Isotropic =   179.7969   Anisotropy =    25.1134
   XX=   172.5987   YX=     0.2940   ZX=    -6.7502
   XY=     0.9201   YY=   171.1220   ZY=    -0.3704
   XZ=    -2.0714   YZ=     2.9894   ZZ=   195.6700
   Eigenvalues:   170.5182   172.3333   196.5392
     11  C    Isotropic =   173.7573   Anisotropy =    36.7786
   XX=   172.2559   YX=    12.1435   ZX=     8.8079
   XY=    15.4785   YY=   164.7131   ZY=    16.5629
   XZ=     4.6293   YZ=    12.1409   ZZ=   184.3030
   Eigenvalues:   152.0849   170.9107   198.2764
     12  H    Isotropic =    30.0522   Anisotropy =     6.4426
   XX=    30.1376   YX=    -0.2321   ZX=     1.3742
   XY=    -0.7553   YY=    26.0762   ZY=    -0.5129
   XZ=     1.1396   YZ=    -0.1716   ZZ=    33.9428
   Eigenvalues:    26.0122    29.7971    34.3472
     13  H    Isotropic =    28.1959   Anisotropy =     2.0420
   XX=    27.9609   YX=    -0.2615   ZX=    -0.1229
   XY=    -0.4841   YY=    27.3536   ZY=    -0.0873
   XZ=    -0.6718   YZ=     1.1539   ZZ=    29.2731
   Eigenvalues:    27.1230    27.9074    29.5572
     14  H    Isotropic =    29.9402   Anisotropy =     8.6460
   XX=    32.6392   YX=     1.9749   ZX=     1.5769
   XY=     2.1321   YY=    33.5872   ZY=     2.0537
   XZ=     1.1460   YZ=     1.9627   ZZ=    23.5943
   Eigenvalues:    23.1069    31.0096    35.7043
     15  H    Isotropic =    30.4794   Anisotropy =     6.6980
   XX=    31.3880   YX=    -1.5413   ZX=    -2.3154
   XY=    -0.6298   YY=    27.6332   ZY=    -3.7898
   XZ=    -1.8718   YZ=    -3.5022   ZZ=    32.4170
   Eigenvalues:    25.0466    31.4469    34.9448
     16  H    Isotropic =    30.7556   Anisotropy =     2.7714
   XX=    32.2982   YX=     0.1231   ZX=    -0.0183
   XY=     0.8824   YY=    27.4129   ZY=    -0.1218
   XZ=    -0.1489   YZ=    -0.2570   ZZ=    32.5557
   Eigenvalues:    27.3555    32.3081    32.6032
     17  H    Isotropic =    30.7271   Anisotropy =     6.8554
   XX=    30.9375   YX=    -0.2949   ZX=    -1.8571
   XY=    -0.7513   YY=    28.5726   ZY=     3.8554
   XZ=    -1.3268   YZ=     3.1442   ZZ=    32.6713
   Eigenvalues:    26.5382    30.3458    35.2974
     18  H    Isotropic =    29.9984   Anisotropy =     8.9519
   XX=    30.6054   YX=    -2.3159   ZX=     0.7295
   XY=    -2.4857   YY=    34.4087   ZY=    -2.0072
   XZ=     0.3789   YZ=    -2.0887   ZZ=    24.9812
   Eigenvalues:    24.5550    29.4739    35.9663
     19  H    Isotropic =    31.0012   Anisotropy =     4.6850
   XX=    31.5864   YX=     0.1265   ZX=    -1.8683
   XY=    -0.2626   YY=    29.8964   ZY=    -3.1005
   XZ=    -1.3064   YZ=    -2.2034   ZZ=    31.5207
   Eigenvalues:    27.6626    31.2163    34.1245
     20  H    Isotropic =    29.5171   Anisotropy =     7.0261
   XX=    30.6700   YX=     1.9845   ZX=     1.4359
   XY=     1.6514   YY=    32.4591   ZY=     2.0995
   XZ=     1.1918   YZ=     1.7181   ZZ=    25.4223
   Eigenvalues:    24.8097    29.5405    34.2012
     21  H    Isotropic =    30.9832   Anisotropy =     8.2918
   XX=    32.2024   YX=    -0.2964   ZX=    -4.0962
   XY=    -0.3071   YY=    27.2933   ZY=     0.1417
   XZ=    -3.1459   YZ=     0.0727   ZZ=    33.4538
   Eigenvalues:    27.2712    29.1673    36.5111
     22  H    Isotropic =    30.5756   Anisotropy =    10.5544
   XX=    34.8296   YX=     4.4667   ZX=     2.3835
   XY=     3.1288   YY=    30.0167   ZY=     2.2175
   XZ=     1.7237   YZ=     1.6043   ZZ=    26.8805
   Eigenvalues:    25.9661    28.1488    37.6119
     23  H    Isotropic =    30.5667   Anisotropy =    10.5670
   XX=    33.8064   YX=    -4.9406   ZX=     1.9409
   XY=    -3.7279   YY=    31.1406   ZY=    -2.3808
   XZ=     1.3657   YZ=    -1.7400   ZZ=    26.7533
   Eigenvalues:    25.9366    28.1523    37.6114
     24  H    Isotropic =    31.7974   Anisotropy =    15.1155
   XX=    25.3832   YX=    -1.3350   ZX=    -0.4114
   XY=    -1.4462   YY=    30.3504   ZY=    -5.2498
   XZ=    -0.4774   YZ=    -4.8525   ZZ=    39.6587
   Eigenvalues:    24.7578    28.7601    41.8744
     25  H    Isotropic =    29.0311   Anisotropy =     6.7141
   XX=    29.3445   YX=    -0.6175   ZX=     0.9999
   XY=    -0.1211   YY=    32.6850   ZY=    -2.6875
   XZ=     1.2268   YZ=    -2.1864   ZZ=    25.0638
   Eigenvalues:    24.1695    29.4166    33.5072
     26  H    Isotropic =    31.0261   Anisotropy =     7.5706
   XX=    29.5525   YX=    -0.4389   ZX=    -1.8820
   XY=    -0.5322   YY=    31.9131   ZY=    -3.7368
   XZ=    -1.6487   YZ=    -4.6313   ZZ=    31.6126
   Eigenvalues:    26.6572    30.3479    36.0731
     27  H    Isotropic =    30.5304   Anisotropy =     8.8777
   XX=    29.2327   YX=     1.9879   ZX=    -0.9240
   XY=     2.3542   YY=    28.3761   ZY=     3.9123
   XZ=     0.0980   YZ=     4.8508   ZZ=    33.9825
   Eigenvalues:    24.9384    30.2040    36.4489
     28  H    Isotropic =    30.8591   Anisotropy =    11.0344
   XX=    36.0119   YX=    -1.8748   ZX=    -3.3289
   XY=    -1.7223   YY=    26.5960   ZY=     1.0883
   XZ=    -4.2797   YZ=     0.9559   ZZ=    29.9694
   Eigenvalues:    26.2196    28.1423    38.2154
     29  H    Isotropic =    30.6080   Anisotropy =     7.1565
   XX=    30.0542   YX=     1.7297   ZX=     1.4510
   XY=     1.0449   YY=    34.8463   ZY=     0.4257
   XZ=     1.4518   YZ=     1.1682   ZZ=    26.9236
   Eigenvalues:    26.3472    30.0978    35.3790
     30  H    Isotropic =    30.8948   Anisotropy =    10.1683
   XX=    28.8139   YX=     1.3400   ZX=     2.1951
   XY=     0.8740   YY=    26.7083   ZY=     1.8005
   XZ=     1.1860   YZ=     0.6384   ZZ=    37.1620
   Eigenvalues:    26.2120    28.7987    37.6737
     31  H    Isotropic =    30.5897   Anisotropy =    10.7243
   XX=    37.2888   YX=     0.2570   ZX=     1.6564
   XY=     1.4731   YY=    26.6107   ZY=     0.8947
   XZ=     2.0396   YZ=     1.3137   ZZ=    27.8695
   Eigenvalues:    25.9657    28.0641    37.7392
 End of Minotr Frequency-dependent properties file   721 does not exist.
 End of Minotr Frequency-dependent properties file   722 does not exist.

 **********************************************************************

            Population analysis using the SCF density.

 **********************************************************************

 Orbital symmetries:
       Occupied  (A) (A) (A) (A) (A) (A) (A) (A) (A) (A) (A) (A)
                 (A) (A) (A) (A) (A) (A) (A) (A) (A) (A) (A) (A)
                 (A) (A) (A) (A) (A) (A) (A) (A) (A) (A) (A) (A)
                 (A) (A) (A) (A) (A) (A) (A) (A)
       Virtual   (A) (A) (A) (A) (A) (A) (A) (A) (A) (A) (A) (A)
                 (A) (A) (A) (A) (A) (A) (A) (A) (A) (A) (A) (A)
                 (A) (A) (A) (A) (A) (A) (A) (A) (A) (A) (A) (A)
                 (A) (A) (A) (A) (A) (A) (A) (A) (A) (A) (A) (A)
                 (A) (A) (A) (A) (A) (A) (A) (A) (A) (A) (A) (A)
                 (A) (A) (A) (A) (A) (A) (A) (A) (A) (A) (A) (A)
                 (A) (A) (A) (A) (A) (A) (A) (A) (A) (A) (A) (A)
                 (A) (A) (A) (A) (A) (A) (A) (A) (A) (A) (A) (A)
                 (A) (A) (A) (A) (A) (A) (A) (A) (A) (A) (A) (A)
                 (A) (A) (A) (A) (A) (A) (A) (A) (A) (A) (A) (A)
                 (A) (A) (A) (A) (A) (A) (A) (A) (A) (A) (A) (A)
                 (A) (A) (A) (A) (A) (A) (A) (A) (A) (A) (A) (A)
                 (A) (A) (A) (A) (A) (A) (A) (A) (A) (A) (A) (A)
                 (A) (A) (A) (A) (A) (A) (A) (A) (A) (A) (A) (A)
                 (A) (A) (A) (A) (A) (A) (A) (A) (A) (A) (A) (A)
                 (A) (A) (A) (A) (A) (A) (A) (A) (A) (A) (A) (A)
                 (A) (A) (A) (A) (A) (A) (A) (A) (A) (A) (A) (A)
                 (A) (A) (A) (A) (A) (A) (A) (A) (A) (A) (A) (A)
                 (A) (A) (A) (A) (A) (A) (A) (A) (A) (A) (A) (A)
                 (A) (A) (A) (A) (A) (A) (A) (A) (A) (A) (A) (A)
                 (A) (A) (A) (A) (A) (A) (A) (A) (A) (A) (A) (A)
                 (A) (A) (A) (A) (A) (A) (A) (A) (A) (A) (A) (A)
                 (A)
 The electronic state is 1-A.
 Alpha  occ. eigenvalues --  -19.24577 -10.29364 -10.25274 -10.24854 -10.24689
 Alpha  occ. eigenvalues --  -10.24223 -10.24158 -10.24137 -10.23526 -10.23171
 Alpha  occ. eigenvalues --  -10.23005  -1.05096  -0.86208  -0.82233  -0.76665
 Alpha  occ. eigenvalues --   -0.75446  -0.70045  -0.69583  -0.63413  -0.62605
 Alpha  occ. eigenvalues --   -0.57967  -0.56737  -0.50523  -0.47892  -0.47445
 Alpha  occ. eigenvalues --   -0.46183  -0.45987  -0.43468  -0.42722  -0.41939
 Alpha  occ. eigenvalues --   -0.41058  -0.39587  -0.39136  -0.38312  -0.37667
 Alpha  occ. eigenvalues --   -0.35688  -0.35422  -0.34613  -0.33933  -0.33114
 Alpha  occ. eigenvalues --   -0.32305  -0.31895  -0.30242  -0.27669
 Alpha virt. eigenvalues --    0.01033   0.01457   0.01834   0.02394   0.03793
 Alpha virt. eigenvalues --    0.04364   0.04581   0.05115   0.05638   0.06314
 Alpha virt. eigenvalues --    0.06874   0.07441   0.07824   0.08761   0.09451
 Alpha virt. eigenvalues --    0.09561   0.10026   0.10044   0.10772   0.11216
 Alpha virt. eigenvalues --    0.12187   0.12874   0.13688   0.14315   0.15148
 Alpha virt. eigenvalues --    0.15300   0.15531   0.15852   0.16277   0.17306
 Alpha virt. eigenvalues --    0.18149   0.18806   0.19154   0.19438   0.19727
 Alpha virt. eigenvalues --    0.20303   0.20382   0.21151   0.21857   0.22401
 Alpha virt. eigenvalues --    0.23132   0.23687   0.24201   0.24372   0.24696
 Alpha virt. eigenvalues --    0.25019   0.25608   0.25916   0.26709   0.27371
 Alpha virt. eigenvalues --    0.27872   0.28165   0.28782   0.30012   0.30124
 Alpha virt. eigenvalues --    0.30961   0.31188   0.31485   0.32616   0.34031
 Alpha virt. eigenvalues --    0.34378   0.35219   0.35560   0.36003   0.37082
 Alpha virt. eigenvalues --    0.37746   0.38137   0.38914   0.39620   0.40530
 Alpha virt. eigenvalues --    0.42391   0.43991   0.45855   0.49882   0.52363
 Alpha virt. eigenvalues --    0.62149   0.62697   0.65522   0.65921   0.67053
 Alpha virt. eigenvalues --    0.68382   0.68876   0.70224   0.71496   0.72900
 Alpha virt. eigenvalues --    0.73101   0.74228   0.74721   0.75663   0.76187
 Alpha virt. eigenvalues --    0.78303   0.79609   0.80343   0.82829   0.84341
 Alpha virt. eigenvalues --    0.86112   0.88059   0.88417   0.90044   0.92749
 Alpha virt. eigenvalues --    0.94779   0.97245   0.98569   0.99200   0.99563
 Alpha virt. eigenvalues --    1.01442   1.02279   1.03070   1.03811   1.05200
 Alpha virt. eigenvalues --    1.05695   1.07005   1.07998   1.09382   1.11685
 Alpha virt. eigenvalues --    1.11825   1.13835   1.15132   1.15767   1.16636
 Alpha virt. eigenvalues --    1.17137   1.18995   1.19721   1.19915   1.21411
 Alpha virt. eigenvalues --    1.22775   1.26566   1.27446   1.28310   1.33943
 Alpha virt. eigenvalues --    1.36135   1.39313   1.41099   1.43052   1.44184
 Alpha virt. eigenvalues --    1.47538   1.48179   1.51350   1.52818   1.56245
 Alpha virt. eigenvalues --    1.58917   1.59718   1.61043   1.65532   1.67507
 Alpha virt. eigenvalues --    1.68814   1.73955   1.76311   1.77299   1.78631
 Alpha virt. eigenvalues --    1.82333   1.84716   1.85624   1.85654   1.87442
 Alpha virt. eigenvalues --    1.89903   1.90423   1.91560   1.93140   1.95043
 Alpha virt. eigenvalues --    1.95250   1.95992   1.97900   2.01431   2.03049
 Alpha virt. eigenvalues --    2.04275   2.05669   2.05893   2.06690   2.07723
 Alpha virt. eigenvalues --    2.08335   2.10851   2.12611   2.12960   2.14493
 Alpha virt. eigenvalues --    2.15755   2.16590   2.17304   2.18383   2.19597
 Alpha virt. eigenvalues --    2.20135   2.21719   2.21997   2.26538   2.29683
 Alpha virt. eigenvalues --    2.31508   2.32099   2.35069   2.36478   2.36972
 Alpha virt. eigenvalues --    2.37835   2.38964   2.39755   2.44253   2.44595
 Alpha virt. eigenvalues --    2.48252   2.49826   2.50953   2.54698   2.55994
 Alpha virt. eigenvalues --    2.56896   2.61386   2.62853   2.64448   2.67318
 Alpha virt. eigenvalues --    2.68614   2.68673   2.71334   2.72641   2.73821
 Alpha virt. eigenvalues --    2.75077   2.75512   2.75817   2.77583   2.78397
 Alpha virt. eigenvalues --    2.78809   2.82334   2.83732   2.86018   2.86472
 Alpha virt. eigenvalues --    2.87588   2.89248   2.90253   2.91538   2.92668
 Alpha virt. eigenvalues --    2.92807   2.93813   2.95947   2.96687   2.99948
 Alpha virt. eigenvalues --    3.00289   3.06473   3.07159   3.16348   3.29285
 Alpha virt. eigenvalues --    3.29414   3.31249   3.33767   3.37301   3.38204
 Alpha virt. eigenvalues --    3.40780   3.41963   3.44201   3.48443   3.50250
 Alpha virt. eigenvalues --    3.51274   3.53355   3.53831   3.54613   3.56961
 Alpha virt. eigenvalues --    3.59392   3.59747   3.61675   3.66355   4.32636
 Alpha virt. eigenvalues --    4.43916   4.45346   4.50919   4.56965   4.59465
 Alpha virt. eigenvalues --    4.60813   4.76203   4.83703   4.85881   4.87895
          Condensed to atoms (all electrons):
              1          2          3          4          5          6
     1  C    6.647500  -0.066289  -0.146227  -0.014072   0.024743  -0.093265
     2  C   -0.066289   6.357630  -0.150120  -0.532892  -0.062514  -0.142206
     3  C   -0.146227  -0.150120   5.983221   0.040712   0.161641  -0.090993
     4  C   -0.014072  -0.532892   0.040712   6.919167  -0.073688   0.027597
     5  C    0.024743  -0.062514   0.161641  -0.073688   5.700708  -0.119933
     6  C   -0.093265  -0.142206  -0.090993   0.027597  -0.119933   6.124161
     7  C   -0.381895  -0.034293  -0.060999  -0.004432   0.087027   0.068051
     8  O   -0.000530   0.275711   0.037737  -0.080500   0.003747  -0.073700
     9  C    0.052489   0.230619  -0.069094  -0.583698  -0.047212   0.035749
    10  C   -0.006350  -0.008061   0.019555  -0.060080  -0.038728   0.012628
    11  C   -0.007550  -0.107068   0.008314   0.176565   0.028449  -0.022557
    12  H    0.261416  -0.021835  -0.022274   0.021100  -0.010980   0.002095
    13  H   -0.001886   0.391260   0.002804  -0.009969   0.003862  -0.038442
    14  H    0.035991   0.017464   0.309761  -0.037001   0.001612   0.000132
    15  H   -0.010523  -0.044411   0.418300   0.005106  -0.044075   0.001467
    16  H   -0.004229  -0.059828  -0.009886   0.423528  -0.020506  -0.022748
    17  H   -0.095164   0.001553  -0.073710   0.027720   0.447229  -0.004818
    18  H   -0.041041   0.003482  -0.027720   0.031349   0.338034   0.039058
    19  H   -0.112849  -0.085928   0.008375   0.024014  -0.012307   0.470314
    20  H   -0.018231  -0.081653  -0.001978   0.044368   0.034041   0.375882
    21  H   -0.125043   0.002975  -0.001750   0.002062   0.005567   0.003614
    22  H   -0.114202  -0.004325  -0.010309   0.000909   0.030405   0.003085
    23  H   -0.104720  -0.008843   0.000625   0.001115  -0.001561   0.028422
    24  H    0.002896   0.114065  -0.003662  -0.043008   0.002034  -0.064880
    25  H   -0.000426  -0.018761   0.012630  -0.076554  -0.010136   0.006812
    26  H   -0.000903  -0.006096   0.012852  -0.008221  -0.006110   0.002803
    27  H    0.000526  -0.005677  -0.012446   0.016133   0.001250   0.002490
    28  H    0.000211   0.003343  -0.005860   0.036184   0.001395   0.000531
    29  H    0.000541   0.001398  -0.000258  -0.014985  -0.001935  -0.000902
    30  H   -0.000642  -0.001518   0.015005   0.004369  -0.000331  -0.003035
    31  H   -0.000115  -0.007446   0.001397   0.041771   0.000703   0.000401
              7          8          9         10         11         12
     1  C   -0.381895  -0.000530   0.052489  -0.006350  -0.007550   0.261416
     2  C   -0.034293   0.275711   0.230619  -0.008061  -0.107068  -0.021835
     3  C   -0.060999   0.037737  -0.069094   0.019555   0.008314  -0.022274
     4  C   -0.004432  -0.080500  -0.583698  -0.060080   0.176565   0.021100
     5  C    0.087027   0.003747  -0.047212  -0.038728   0.028449  -0.010980
     6  C    0.068051  -0.073700   0.035749   0.012628  -0.022557   0.002095
     7  C    5.655989  -0.005861  -0.019325   0.005525  -0.001956   0.038509
     8  O   -0.005861   8.245210  -0.018491  -0.021754  -0.008892  -0.000687
     9  C   -0.019325  -0.018491   6.799422  -0.067297  -0.229302  -0.002087
    10  C    0.005525  -0.021754  -0.067297   5.554097  -0.150427   0.001589
    11  C   -0.001956  -0.008892  -0.229302  -0.150427   5.639561   0.001203
    12  H    0.038509  -0.000687  -0.002087   0.001589   0.001203   0.568402
    13  H    0.010915  -0.070543  -0.050884   0.018491   0.002186   0.002385
    14  H    0.000480  -0.000427   0.026508  -0.014322  -0.010402  -0.000019
    15  H    0.007068  -0.000258  -0.046274   0.010897   0.010873   0.002925
    16  H    0.007469  -0.010738  -0.069108   0.013959   0.011253   0.000074
    17  H    0.007316  -0.000464  -0.008351   0.001381   0.003824   0.005094
    18  H   -0.014991   0.000037   0.000395   0.001142  -0.001311  -0.004346
    19  H    0.022195  -0.011048  -0.006810   0.001075   0.002265   0.005008
    20  H   -0.016857   0.001535  -0.002549  -0.002421   0.000485  -0.004429
    21  H    0.461817  -0.000093  -0.000236   0.000022   0.000109   0.004806
    22  H    0.454674  -0.000026  -0.000381  -0.000022  -0.000014  -0.003647
    23  H    0.444120   0.000027  -0.000156   0.000042  -0.000043  -0.003705
    24  H    0.001787   0.233904  -0.017312   0.010566  -0.005387   0.000009
    25  H   -0.000310   0.005584   0.396072   0.014129  -0.046111   0.000002
    26  H   -0.000201  -0.000065  -0.086031   0.448794  -0.006354   0.000001
    27  H   -0.000049   0.001569  -0.064364   0.424499  -0.003150  -0.000003
    28  H    0.000041   0.000329  -0.111128   0.439078  -0.003620   0.000000
    29  H   -0.000038  -0.000006  -0.068654   0.002126   0.432137   0.000000
    30  H   -0.000083  -0.000188  -0.111815  -0.000073   0.457148   0.000000
    31  H    0.000006   0.000207  -0.138502   0.004816   0.456157   0.000000
             13         14         15         16         17         18
     1  C   -0.001886   0.035991  -0.010523  -0.004229  -0.095164  -0.041041
     2  C    0.391260   0.017464  -0.044411  -0.059828   0.001553   0.003482
     3  C    0.002804   0.309761   0.418300  -0.009886  -0.073710  -0.027720
     4  C   -0.009969  -0.037001   0.005106   0.423528   0.027720   0.031349
     5  C    0.003862   0.001612  -0.044075  -0.020506   0.447229   0.338034
     6  C   -0.038442   0.000132   0.001467  -0.022748  -0.004818   0.039058
     7  C    0.010915   0.000480   0.007068   0.007469   0.007316  -0.014991
     8  O   -0.070543  -0.000427  -0.000258  -0.010738  -0.000464   0.000037
     9  C   -0.050884   0.026508  -0.046274  -0.069108  -0.008351   0.000395
    10  C    0.018491  -0.014322   0.010897   0.013959   0.001381   0.001142
    11  C    0.002186  -0.010402   0.010873   0.011253   0.003824  -0.001311
    12  H    0.002385  -0.000019   0.002925   0.000074   0.005094  -0.004346
    13  H    0.569939  -0.000118   0.002860   0.005144   0.000056  -0.000017
    14  H   -0.000118   0.552587  -0.030424  -0.004406  -0.004103  -0.002728
    15  H    0.002860  -0.030424   0.544812   0.004870   0.004566  -0.004099
    16  H    0.005144  -0.004406   0.004870   0.579882   0.002578  -0.000003
    17  H    0.000056  -0.004103   0.004566   0.002578   0.547286  -0.029604
    18  H   -0.000017  -0.002728  -0.004099  -0.000003  -0.029604   0.552196
    19  H    0.004712  -0.000047   0.000082   0.002974   0.003037  -0.000031
    20  H   -0.005837   0.000010  -0.000039  -0.000051  -0.000052  -0.000130
    21  H    0.000000   0.000000   0.000001  -0.000004   0.003255  -0.000154
    22  H    0.000002   0.000002   0.000002   0.000001  -0.000009   0.000008
    23  H    0.000004  -0.000002   0.000003   0.000001  -0.000197   0.002719
    24  H    0.008007  -0.000005   0.000007   0.004028   0.000008   0.000000
    25  H    0.000011  -0.000010  -0.000019  -0.003232   0.000001   0.000002
    26  H   -0.000023   0.000048  -0.001481  -0.000070  -0.000002   0.000006
    27  H    0.001222   0.000113  -0.000157  -0.000026   0.000000   0.000000
    28  H   -0.000036  -0.000015   0.000065  -0.000088   0.000000   0.000000
    29  H   -0.000001   0.000267   0.000090  -0.000210   0.000007   0.000006
    30  H    0.000001  -0.000029   0.000021   0.003720   0.000000   0.000000
    31  H    0.000002  -0.000039  -0.000010   0.000100   0.000000   0.000000
             19         20         21         22         23         24
     1  C   -0.112849  -0.018231  -0.125043  -0.114202  -0.104720   0.002896
     2  C   -0.085928  -0.081653   0.002975  -0.004325  -0.008843   0.114065
     3  C    0.008375  -0.001978  -0.001750  -0.010309   0.000625  -0.003662
     4  C    0.024014   0.044368   0.002062   0.000909   0.001115  -0.043008
     5  C   -0.012307   0.034041   0.005567   0.030405  -0.001561   0.002034
     6  C    0.470314   0.375882   0.003614   0.003085   0.028422  -0.064880
     7  C    0.022195  -0.016857   0.461817   0.454674   0.444120   0.001787
     8  O   -0.011048   0.001535  -0.000093  -0.000026   0.000027   0.233904
     9  C   -0.006810  -0.002549  -0.000236  -0.000381  -0.000156  -0.017312
    10  C    0.001075  -0.002421   0.000022  -0.000022   0.000042   0.010566
    11  C    0.002265   0.000485   0.000109  -0.000014  -0.000043  -0.005387
    12  H    0.005008  -0.004429   0.004806  -0.003647  -0.003705   0.000009
    13  H    0.004712  -0.005837   0.000000   0.000002   0.000004   0.008007
    14  H   -0.000047   0.000010   0.000000   0.000002  -0.000002  -0.000005
    15  H    0.000082  -0.000039   0.000001   0.000002   0.000003   0.000007
    16  H    0.002974  -0.000051  -0.000004   0.000001   0.000001   0.004028
    17  H    0.003037  -0.000052   0.003255  -0.000009  -0.000197   0.000008
    18  H   -0.000031  -0.000130  -0.000154   0.000008   0.002719   0.000000
    19  H    0.553346  -0.031078   0.003256  -0.000191  -0.000005   0.004423
    20  H   -0.031078   0.534969  -0.000197   0.002575   0.000000  -0.000983
    21  H    0.003256  -0.000197   0.533834  -0.027951  -0.027907   0.000002
    22  H   -0.000191   0.002575  -0.027951   0.529835  -0.025435   0.000000
    23  H   -0.000005   0.000000  -0.027907  -0.025435   0.531468   0.000000
    24  H    0.004423  -0.000983   0.000002   0.000000   0.000000   0.398232
    25  H    0.000011  -0.000009   0.000000   0.000000   0.000000  -0.000010
    26  H    0.000000   0.000000   0.000000   0.000000   0.000000   0.000000
    27  H   -0.000002   0.000008   0.000000   0.000000   0.000000  -0.000015
    28  H    0.000000   0.000000   0.000000   0.000000   0.000000  -0.000001
    29  H    0.000000   0.000000   0.000000   0.000000   0.000000   0.000001
    30  H    0.000001   0.000000   0.000000   0.000000   0.000000   0.000010
    31  H    0.000000   0.000000   0.000000   0.000000   0.000000  -0.000001
             25         26         27         28         29         30
     1  C   -0.000426  -0.000903   0.000526   0.000211   0.000541  -0.000642
     2  C   -0.018761  -0.006096  -0.005677   0.003343   0.001398  -0.001518
     3  C    0.012630   0.012852  -0.012446  -0.005860  -0.000258   0.015005
     4  C   -0.076554  -0.008221   0.016133   0.036184  -0.014985   0.004369
     5  C   -0.010136  -0.006110   0.001250   0.001395  -0.001935  -0.000331
     6  C    0.006812   0.002803   0.002490   0.000531  -0.000902  -0.003035
     7  C   -0.000310  -0.000201  -0.000049   0.000041  -0.000038  -0.000083
     8  O    0.005584  -0.000065   0.001569   0.000329  -0.000006  -0.000188
     9  C    0.396072  -0.086031  -0.064364  -0.111128  -0.068654  -0.111815
    10  C    0.014129   0.448794   0.424499   0.439078   0.002126  -0.000073
    11  C   -0.046111  -0.006354  -0.003150  -0.003620   0.432137   0.457148
    12  H    0.000002   0.000001  -0.000003   0.000000   0.000000   0.000000
    13  H    0.000011  -0.000023   0.001222  -0.000036  -0.000001   0.000001
    14  H   -0.000010   0.000048   0.000113  -0.000015   0.000267  -0.000029
    15  H   -0.000019  -0.001481  -0.000157   0.000065   0.000090   0.000021
    16  H   -0.003232  -0.000070  -0.000026  -0.000088  -0.000210   0.003720
    17  H    0.000001  -0.000002   0.000000   0.000000   0.000007   0.000000
    18  H    0.000002   0.000006   0.000000   0.000000   0.000006   0.000000
    19  H    0.000011   0.000000  -0.000002   0.000000   0.000000   0.000001
    20  H   -0.000009   0.000000   0.000008   0.000000   0.000000   0.000000
    21  H    0.000000   0.000000   0.000000   0.000000   0.000000   0.000000
    22  H    0.000000   0.000000   0.000000   0.000000   0.000000   0.000000
    23  H    0.000000   0.000000   0.000000   0.000000   0.000000   0.000000
    24  H   -0.000010   0.000000  -0.000015  -0.000001   0.000001   0.000010
    25  H    0.551539   0.004778  -0.003282  -0.004268   0.004774  -0.003792
    26  H    0.004778   0.538064  -0.029102  -0.028414   0.003357   0.000005
    27  H   -0.003282  -0.029102   0.533619  -0.024909   0.000003  -0.000133
    28  H   -0.004268  -0.028414  -0.024909   0.529175  -0.000157   0.000060
    29  H    0.004774   0.003357   0.000003  -0.000157   0.540325  -0.029013
    30  H   -0.003792   0.000005  -0.000133   0.000060  -0.029013   0.536246
    31  H   -0.003901  -0.000157   0.000046   0.002563  -0.028463  -0.025010
             31
     1  C   -0.000115
     2  C   -0.007446
     3  C    0.001397
     4  C    0.041771
     5  C    0.000703
     6  C    0.000401
     7  C    0.000006
     8  O    0.000207
     9  C   -0.138502
    10  C    0.004816
    11  C    0.456157
    12  H    0.000000
    13  H    0.000002
    14  H   -0.000039
    15  H   -0.000010
    16  H    0.000100
    17  H    0.000000
    18  H    0.000000
    19  H    0.000000
    20  H    0.000000
    21  H    0.000000
    22  H    0.000000
    23  H    0.000000
    24  H   -0.000001
    25  H   -0.003901
    26  H   -0.000157
    27  H    0.000046
    28  H    0.002563
    29  H   -0.028463
    30  H   -0.025010
    31  H    0.530750
 Mulliken atomic charges:
              1
     1  C    0.319840
     2  C    0.050263
     3  C   -0.345644
     4  C   -0.304668
     5  C   -0.422432
     6  C   -0.527814
     7  C   -0.731700
     8  O   -0.501326
     9  C    0.277807
    10  C   -0.614877
    11  C   -0.626387
    12  H    0.159392
    13  H    0.153894
    14  H    0.159123
    15  H    0.167754
    16  H    0.145551
    17  H    0.161567
    18  H    0.157741
    19  H    0.155206
    20  H    0.172620
    21  H    0.162015
    22  H    0.165015
    23  H    0.164028
    24  H    0.355284
    25  H    0.174476
    26  H    0.162521
    27  H    0.161836
    28  H    0.165520
    29  H    0.159591
    30  H    0.159077
    31  H    0.164725
 Sum of Mulliken atomic charges =   0.00000
 Mulliken charges with hydrogens summed into heavy atoms:
              1
     1  C    0.479233
     2  C    0.204157
     3  C   -0.018766
     4  C   -0.159117
     5  C   -0.103124
     6  C   -0.199988
     7  C   -0.240642
     8  O   -0.146042
     9  C    0.452283
    10  C   -0.124999
    11  C   -0.142995
 Sum of Mulliken charges with hydrogens summed into heavy atoms =   0.00000
 Electronic spatial extent (au):  <R**2>=           2230.8960
 Charge=              0.0000 electrons
 Dipole moment (field-independent basis, Debye):
    X=              0.8325    Y=             -1.4666    Z=             -0.8920  Tot=              1.9078
 Quadrupole moment (field-independent basis, Debye-Ang):
   XX=            -72.5846   YY=            -77.7056   ZZ=            -69.0436
   XY=              1.3082   XZ=              0.8228   YZ=             -3.0168
 Traceless Quadrupole moment (field-independent basis, Debye-Ang):
   XX=              0.5266   YY=             -4.5943   ZZ=              4.0677
   XY=              1.3082   XZ=              0.8228   YZ=             -3.0168
 Octapole moment (field-independent basis, Debye-Ang**2):
  XXX=             -4.0729  YYY=            -10.4386  ZZZ=             -6.0713  XYY=              5.5075
  XXY=              4.4985  XXZ=              1.8972  XZZ=              1.3265  YZZ=             10.8935
  YYZ=             -6.5279  XYZ=              1.2029
 Hexadecapole moment (field-independent basis, Debye-Ang**3):
 XXXX=          -2103.8496 YYYY=           -727.7793 ZZZZ=           -309.9353 XXXY=            -10.3545
 XXXZ=              5.9993 YYYX=              5.2074 YYYZ=            -27.3633 ZZZX=              3.7694
 ZZZY=            -12.4108 XXYY=           -466.0765 XXZZ=           -408.8905 YYZZ=           -149.3509
 XXYZ=             -2.8815 YYXZ=              6.5980 ZZXY=             -5.6529
 N-N= 6.861618587149D+02 E-N=-2.457555931975D+03  KE= 4.636998143845D+02
 1\1\GINC-COMPUTE-10-6\SP\RmPW1PW91\6-31+G(d,p)\C10H20O1\ASAROTTI.IQUIR
 \19-Sep-2024\0\\# mPW1PW91/6-31+G** nmr scrf=(pcm,solvent=benzene)\\co
 mment\\0,1\C,0,2.242442,-0.273009,0.359605\C,0,0.112388,1.146292,0.190
 722\C,0,-0.047168,-1.372363,0.171034\C,0,-0.680244,-0.064791,-0.349613
 \C,0,1.445342,-1.474601,-0.17513\C,0,1.607451,1.036121,-0.13998\C,0,3.
 728684,-0.358263,-0.005954\O,0,-0.416457,2.393988,-0.268275\C,0,-2.208
 503,0.056832,-0.100402\C,0,-2.613797,-0.085181,1.375991\C,0,-3.008101,
 -0.922614,-0.974641\H,0,2.162496,-0.284151,1.458658\H,0,-0.003104,1.19
 4042,1.28086\H,0,-0.582418,-2.238198,-0.236877\H,0,-0.160785,-1.425816
 ,1.262784\H,0,-0.541558,-0.053341,-1.446273\H,0,1.566576,-1.526714,-1.
 268147\H,0,1.860656,-2.408225,0.227536\H,0,1.727953,1.095343,-1.23514\
 H,0,2.127457,1.906368,0.279735\H,0,3.866185,-0.352721,-1.095003\H,0,4.
 290118,0.489365,0.404817\H,0,4.18017,-1.279533,0.381402\H,0,-0.302998,
 2.41321,-1.232911\H,0,-2.477401,1.073716,-0.412854\H,0,-2.428337,-1.09
 7545,1.754659\H,0,-2.077057,0.62032,2.019785\H,0,-3.684978,0.115828,1.
 494998\H,0,-2.814381,-1.967606,-0.70247\H,0,-2.762428,-0.804497,-2.037
 426\H,0,-4.085479,-0.75228,-0.861729\\Version=AM64L-G09RevC.01\State=1
 -A\HF=-468.2858234\RMSD=7.774e-09\Dipole=0.3275341,-0.5770146,-0.35095
 44\Quadrupole=0.3915465,-3.4157655,3.0242191,0.972611,0.6117343,-2.242
 927\PG=C01 [X(C10H20O1)]\\@


 When cryptography is outlawed, bayl bhgynjf jvyy unir cevinpl.
 Job cpu time:  0 days  0 hours  9 minutes 10.8 seconds.
 File lengths (MBytes):  RWF=    122 Int=      0 D2E=      0 Chk=      7 Scr=      1
 Normal termination of Gaussian 09 at Thu Sep 19 07:44:20 2024.
