 Entering Gaussian System, Link 0=g09
 Input=/home/asarotti.iquir/SCF2/01_Mentol09_OptB_NMR_benzene.gjc
 Output=/home/asarotti.iquir/SCF2/01_Mentol09_OptB_NMR_benzene.log
 Initial command:
 /opt/ohpc/pub/apps/software/Gaussian/09/AMD64.SSE4a-enabled/g09/l1.exe /local/asarotti.iquir/Gau-2481010.inp -scrdir=/local/asarotti.iquir/
 Entering Link 1 = /opt/ohpc/pub/apps/software/Gaussian/09/AMD64.SSE4a-enabled/g09/l1.exe PID=   2481011.
  
 Copyright (c) 1988,1990,1992,1993,1995,1998,2003,2009,2011,
            Gaussian, Inc.  All Rights Reserved.
  
 This is part of the Gaussian(R) 09 program.  It is based on
 the Gaussian(R) 03 system (copyright 2003, Gaussian, Inc.),
 the Gaussian(R) 98 system (copyright 1998, Gaussian, Inc.),
 the Gaussian(R) 94 system (copyright 1995, Gaussian, Inc.),
 the Gaussian 92(TM) system (copyright 1992, Gaussian, Inc.),
 the Gaussian 90(TM) system (copyright 1990, Gaussian, Inc.),
 the Gaussian 88(TM) system (copyright 1988, Gaussian, Inc.),
 the Gaussian 86(TM) system (copyright 1986, Carnegie Mellon
 University), and the Gaussian 82(TM) system (copyright 1983,
 Carnegie Mellon University). Gaussian is a federally registered
 trademark of Gaussian, Inc.
  
 This software contains proprietary and confidential information,
 including trade secrets, belonging to Gaussian, Inc.
  
 This software is provided under written license and may be
 used, copied, transmitted, or stored only in accord with that
 written license.
  
 The following legend is applicable only to US Government
 contracts under FAR:
  
                    RESTRICTED RIGHTS LEGEND
  
 Use, reproduction and disclosure by the US Government is
 subject to restrictions as set forth in subparagraphs (a)
 and (c) of the Commercial Computer Software - Restricted
 Rights clause in FAR 52.227-19.
  
 Gaussian, Inc.
 340 Quinnipiac St., Bldg. 40, Wallingford CT 06492
  
  
 ---------------------------------------------------------------
 Warning -- This program may not be used in any manner that
 competes with the business of Gaussian, Inc. or will provide
 assistance to any competitor of Gaussian, Inc.  The licensee
 of this program is prohibited from giving any competitor of
 Gaussian, Inc. access to this program.  By using this program,
 the user acknowledges that Gaussian, Inc. is engaged in the
 business of creating and licensing software in the field of
 computational chemistry and represents and warrants to the
 licensee that it is not a competitor of Gaussian, Inc. and that
 it will not use this program in any manner prohibited above.
 ---------------------------------------------------------------
  

 Cite this work as:
 Gaussian 09, Revision C.01,
 M. J. Frisch, G. W. Trucks, H. B. Schlegel, G. E. Scuseria, 
 M. A. Robb, J. R. Cheeseman, G. Scalmani, V. Barone, B. Mennucci, 
 G. A. Petersson, H. Nakatsuji, M. Caricato, X. Li, H. P. Hratchian, 
 A. F. Izmaylov, J. Bloino, G. Zheng, J. L. Sonnenberg, M. Hada, 
 M. Ehara, K. Toyota, R. Fukuda, J. Hasegawa, M. Ishida, T. Nakajima, 
 Y. Honda, O. Kitao, H. Nakai, T. Vreven, J. A. Montgomery, Jr., 
 J. E. Peralta, F. Ogliaro, M. Bearpark, J. J. Heyd, E. Brothers, 
 K. N. Kudin, V. N. Staroverov, T. Keith, R. Kobayashi, J. Normand, 
 K. Raghavachari, A. Rendell, J. C. Burant, S. S. Iyengar, J. Tomasi, 
 M. Cossi, N. Rega, J. M. Millam, M. Klene, J. E. Knox, J. B. Cross, 
 V. Bakken, C. Adamo, J. Jaramillo, R. Gomperts, R. E. Stratmann, 
 O. Yazyev, A. J. Austin, R. Cammi, C. Pomelli, J. W. Ochterski, 
 R. L. Martin, K. Morokuma, V. G. Zakrzewski, G. A. Voth, 
 P. Salvador, J. J. Dannenberg, S. Dapprich, A. D. Daniels, 
 O. Farkas, J. B. Foresman, J. V. Ortiz, J. Cioslowski, 
 and D. J. Fox, Gaussian, Inc., Wallingford CT, 2010.
 
 ******************************************
 Gaussian 09:  AM64L-G09RevC.01 23-Sep-2011
                19-Sep-2024 
 ******************************************
 %nprocshared=4
 Will use up to    4 processors via shared memory.
 %mem=100mw
 --------------------------------------------------
 # mPW1PW91/6-31+G** nmr scrf=(pcm,solvent=benzene)
 --------------------------------------------------
 1/38=1/1;
 2/12=2,17=6,18=5,40=1/2;
 3/5=1,6=6,7=111,11=2,16=1,25=1,30=1,70=2201,72=12,74=-7/1,2,8,3;
 4//1;
 5/5=2,38=5,53=12/2;
 8/6=1,10=90,11=11/1;
 10/13=100,45=16/2;
 6/7=2,8=2,9=2,10=2,28=1/1;
 99/9=1/99;
 -------
 comment
 -------
 Charge =  0 Multiplicity = 1
 Symbolic Z-Matrix:
 6                    -1.887    -0.59551  -0.79594 
 6                    -0.22421   1.25268  -0.00938 
 6                    -0.12043  -1.03831   1.00745 
 6                     0.7229    0.1885    0.5897 
 6                    -0.93128  -1.62756  -0.1576 
 6                    -1.10971   0.6956   -1.14014 
 6                    -3.13453  -0.33707   0.06666 
 8                    -0.99897   1.75558   1.09055 
 6                     1.93247  -0.13013  -0.3383 
 6                     2.74737  -1.3383    0.15543 
 6                     2.87532   1.07966  -0.48116 
 1                    -2.24333  -1.01709  -1.74715 
 1                     0.36763   2.08218  -0.42323 
 1                    -0.80346  -0.71774   1.80158 
 1                     0.51739  -1.81048   1.45039 
 1                     1.13742   0.63349   1.50605 
 1                    -1.5062   -2.49669   0.18876 
 1                    -0.2444   -2.00346  -0.92936 
 1                    -1.80867   1.48139  -1.4662 
 1                    -0.46148   0.50156  -2.0061 
 1                    -2.8789    0.09378   1.03806 
 1                    -3.81569   0.36032  -0.43818 
 1                    -3.68679  -1.26955   0.23638 
 1                    -1.6525    2.37369   0.72775 
 1                     1.55721  -0.37812  -1.3418 
 1                     3.08234  -1.19148   1.19075 
 1                     2.17831  -2.27202   0.11703 
 1                     3.64152  -1.47377  -0.46426 
 1                     3.29106   1.36402   0.49436 
 1                     2.37832   1.96094  -0.89843 
 1                     3.71656   0.83702  -1.14103 
 
                          Input orientation:                          
 ---------------------------------------------------------------------
 Center     Atomic      Atomic             Coordinates (Angstroms)
 Number     Number       Type             X           Y           Z
 ---------------------------------------------------------------------
      1          6           0       -1.887001   -0.595505   -0.795940
      2          6           0       -0.224206    1.252684   -0.009380
      3          6           0       -0.120429   -1.038314    1.007448
      4          6           0        0.722903    0.188495    0.589697
      5          6           0       -0.931282   -1.627564   -0.157604
      6          6           0       -1.109712    0.695596   -1.140144
      7          6           0       -3.134528   -0.337065    0.066658
      8          8           0       -0.998968    1.755582    1.090551
      9          6           0        1.932468   -0.130125   -0.338299
     10          6           0        2.747371   -1.338301    0.155426
     11          6           0        2.875317    1.079656   -0.481158
     12          1           0       -2.243328   -1.017093   -1.747150
     13          1           0        0.367634    2.082185   -0.423230
     14          1           0       -0.803456   -0.717743    1.801584
     15          1           0        0.517391   -1.810478    1.450390
     16          1           0        1.137421    0.633489    1.506048
     17          1           0       -1.506202   -2.496694    0.188759
     18          1           0       -0.244403   -2.003455   -0.929363
     19          1           0       -1.808673    1.481394   -1.466195
     20          1           0       -0.461479    0.501561   -2.006098
     21          1           0       -2.878901    0.093780    1.038059
     22          1           0       -3.815693    0.360324   -0.438179
     23          1           0       -3.686790   -1.269555    0.236377
     24          1           0       -1.652504    2.373691    0.727751
     25          1           0        1.557207   -0.378116   -1.341798
     26          1           0        3.082341   -1.191475    1.190750
     27          1           0        2.178313   -2.272018    0.117026
     28          1           0        3.641518   -1.473766   -0.464263
     29          1           0        3.291063    1.364018    0.494363
     30          1           0        2.378320    1.960940   -0.898430
     31          1           0        3.716558    0.837020   -1.141034
 ---------------------------------------------------------------------
                    Distance matrix (angstroms):
                    1          2          3          4          5
     1  C    0.000000
     2  C    2.607559   0.000000
     3  C    2.563019   2.508661   0.000000
     4  C    3.057163   1.545447   1.546216   0.000000
     5  C    1.544674   2.969471   1.536894   2.567656   0.000000
     6  C    1.545832   1.540485   2.932111   2.570599   2.528694
     7  C    1.538568   3.317086   3.234444   3.928047   2.563196
     8  O    3.142461   1.436318   2.929947   2.381482   3.606681
     9  C    3.874836   2.582942   2.617294   1.557480   3.236671
    10  C    4.788971   3.945964   3.006694   2.572580   3.703262
    11  C    5.058154   3.139993   3.959323   2.563939   4.682299
    12  H    1.099775   3.499798   3.477781   3.963940   2.149604
    13  H    3.520272   1.099826   3.467356   2.176763   3.939540
    14  H    2.817116   2.738194   1.095419   2.149351   2.163916
    15  H    3.507600   3.473306   1.095102   2.186074   2.172040
    16  H    3.994584   2.129308   2.150747   1.099793   3.487066
    17  H    2.174663   3.967444   2.171979   3.512819   1.098129
    18  H    2.167545   3.383669   2.167511   2.836877   1.099413
    19  H    2.183778   2.164522   3.913822   3.508156   3.485376
    20  H    2.167983   2.146478   3.401322   2.870352   2.858464
    21  H    2.196026   3.080194   2.981902   3.630839   2.861093
    22  H    2.182076   3.725447   4.207256   4.656706   3.514292
    23  H    2.181573   4.290871   3.656084   4.657911   2.806460
    24  H    3.345556   1.959606   3.750635   3.230588   4.161016
    25  H    3.493964   2.758311   2.961297   2.178941   3.025890
    26  H    5.384838   4.283396   3.211665   2.798666   4.256454
    27  H    4.491211   4.267505   2.756645   2.897544   3.187526
    28  H    5.607662   4.752291   4.062979   3.520264   4.585651
    29  H    5.684801   3.552924   4.203895   2.826020   5.215632
    30  H    4.973819   2.839926   4.344150   2.845433   4.937575
    31  H    5.794057   4.121048   4.780724   3.518236   5.351983
                    6          7          8          9         10
     6  C    0.000000
     7  C    2.573449   0.000000
     8  O    2.472213   3.160403   0.000000
     9  C    3.252634   5.087363   3.767071   0.000000
    10  C    4.548882   5.967168   4.947891   1.538675   0.000000
    11  C    4.057366   6.198826   4.235237   1.540436   2.503622
    12  H    2.141692   2.132270   4.157969   4.495425   5.350705
    13  H    2.149220   4.284612   2.065382   2.711132   4.206865
    14  H    3.277969   2.930662   2.580916   3.522737   3.962739
    15  H    3.954584   4.173988   3.891736   2.832920   2.621582
    16  H    3.472146   4.611222   2.448650   2.148679   2.881679
    17  H    3.480503   2.707462   4.376342   4.207480   4.408613
    18  H    2.842194   3.481628   4.333564   2.932148   3.251140
    19  H    1.101061   2.722925   2.695877   4.226734   5.598024
    20  H    1.098969   3.484939   3.383888   2.985224   4.284156
    21  H    2.869979   1.092974   2.509679   5.009368   5.872379
    22  H    2.815581   1.097815   3.495383   5.769911   6.805256
    23  H    3.521074   1.096966   4.135874   5.762344   6.435037
    24  H    2.568980   3.159373   0.969944   4.500842   5.784924
    25  H    2.882009   4.898756   4.123472   1.099696   2.140123
    26  H    5.154359   6.375191   5.035104   2.187844   1.098025
    27  H    4.604163   5.654455   5.221535   2.203512   1.094134
    28  H    5.266605   6.891209   5.863467   2.177634   1.096296
    29  H    4.741858   6.660693   4.348923   2.184392   2.777230
    30  H    3.718318   6.050100   3.924830   2.210223   3.483074
    31  H    4.828342   7.055096   5.297161   2.182368   2.711485
                   11         12         13         14         15
    11  C    0.000000
    12  H    5.674471   0.000000
    13  H    2.701276   4.263263   0.000000
    14  H    4.687742   3.841400   3.763090   0.000000
    15  H    4.200425   4.298289   4.322696   1.749870   0.000000
    16  H    2.677375   4.973649   2.532470   2.383311   2.522005
    17  H    5.695329   2.545647   4.985170   2.501944   2.481438
    18  H    4.408981   2.374318   4.162117   3.069799   2.506151
    19  H    4.803275   2.551529   2.486974   4.065101   4.975285
    20  H    3.714006   2.355494   2.385639   4.012741   4.272121
    21  H    6.032495   3.065189   4.077881   2.355634   3.915484
    22  H    6.729703   2.466377   4.523854   3.905424   5.201412
    23  H    7.006775   2.466110   5.301660   3.326858   4.409259
    24  H    4.861805   4.239295   2.343222   3.380971   4.768430
    25  H    2.145510   3.875135   2.883042   3.945748   3.305933
    26  H    2.827750   6.084769   4.548782   3.961939   2.651329
    27  H    3.475249   4.959929   4.746527   3.760911   2.179344
    28  H    2.665954   6.040345   4.833714   5.046130   3.679598
    29  H    1.097883   6.428340   3.147090   4.775735   4.322577
    30  H    1.094433   5.563150   2.069631   4.958741   4.817012
    31  H    1.096355   6.270993   3.644307   5.613093   4.894833
                   16         17         18         19         20
    16  H    0.000000
    17  H    4.303724   0.000000
    18  H    3.846315   1.756593   0.000000
    19  H    4.269970   4.319207   3.857370   0.000000
    20  H    3.861225   3.859842   2.735249   1.751142   0.000000
    21  H    4.079356   3.052240   3.899965   3.056493   3.908594
    22  H    5.328037   3.726842   4.310780   2.518282   3.705276
    23  H    5.339162   2.502619   3.707774   3.740828   4.309081
    24  H    3.379013   4.902302   4.887554   2.373601   3.520986
    25  H    3.051195   4.026841   2.461225   3.847389   2.300048
    26  H    2.685632   4.874660   4.027582   6.174593   5.064076
    27  H    3.384495   3.692056   2.652661   5.700066   4.378230
    28  H    3.820098   5.288841   3.949338   6.280240   4.807677
    29  H    2.489047   6.165407   5.085901   5.464876   4.591047
    30  H    3.013880   6.011821   4.753531   4.252438   3.379523
    31  H    3.701407   6.337130   4.878762   5.572174   4.279820
                   21         22         23         24         25
    21  H    0.000000
    22  H    1.768588   0.000000
    23  H    1.775968   1.768657   0.000000
    24  H    2.607362   3.176858   4.201548   0.000000
    25  H    5.056230   5.498170   5.548406   4.707199   0.000000
    26  H    6.100131   7.255644   6.836524   5.945043   3.066168
    27  H    5.658685   6.570052   5.951354   6.052335   2.469981
    28  H    6.872411   7.679490   7.364557   6.652104   2.512940
    29  H    6.322781   7.237611   7.462754   5.051016   3.068025
    30  H    5.905476   6.414016   6.964872   4.366047   2.518330
    31  H    6.985766   7.579977   7.819494   5.889019   2.485892
                   26         27         28         29         30
    26  H    0.000000
    27  H    1.771362   0.000000
    28  H    1.769586   1.765240   0.000000
    29  H    2.656890   3.821172   3.015759   0.000000
    30  H    3.846822   4.357647   3.685292   1.768979   0.000000
    31  H    3.155034   3.689855   2.409021   1.770112   1.764351
                   31
    31  H    0.000000
 Stoichiometry    C10H20O
 Framework group  C1[X(C10H20O)]
 Deg. of freedom    87
 Full point group                 C1      NOp   1
 Largest Abelian subgroup         C1      NOp   1
 Largest concise Abelian subgroup C1      NOp   1
                         Standard orientation:                         
 ---------------------------------------------------------------------
 Center     Atomic      Atomic             Coordinates (Angstroms)
 Number     Number       Type             X           Y           Z
 ---------------------------------------------------------------------
      1          6           0        1.887001   -0.595505    0.795940
      2          6           0        0.224206    1.252684    0.009380
      3          6           0        0.120429   -1.038314   -1.007448
      4          6           0       -0.722903    0.188495   -0.589697
      5          6           0        0.931282   -1.627564    0.157604
      6          6           0        1.109712    0.695596    1.140144
      7          6           0        3.134528   -0.337065   -0.066658
      8          8           0        0.998968    1.755582   -1.090551
      9          6           0       -1.932468   -0.130125    0.338299
     10          6           0       -2.747371   -1.338301   -0.155426
     11          6           0       -2.875317    1.079656    0.481158
     12          1           0        2.243328   -1.017093    1.747150
     13          1           0       -0.367634    2.082185    0.423230
     14          1           0        0.803456   -0.717743   -1.801584
     15          1           0       -0.517391   -1.810478   -1.450390
     16          1           0       -1.137421    0.633489   -1.506048
     17          1           0        1.506202   -2.496694   -0.188759
     18          1           0        0.244403   -2.003455    0.929363
     19          1           0        1.808673    1.481394    1.466195
     20          1           0        0.461479    0.501561    2.006098
     21          1           0        2.878901    0.093780   -1.038059
     22          1           0        3.815693    0.360324    0.438179
     23          1           0        3.686790   -1.269555   -0.236377
     24          1           0        1.652504    2.373691   -0.727751
     25          1           0       -1.557207   -0.378116    1.341798
     26          1           0       -3.082341   -1.191475   -1.190750
     27          1           0       -2.178313   -2.272018   -0.117026
     28          1           0       -3.641518   -1.473766    0.464263
     29          1           0       -3.291063    1.364018   -0.494363
     30          1           0       -2.378320    1.960940    0.898430
     31          1           0       -3.716558    0.837020    1.141034
 ---------------------------------------------------------------------
 Rotational constants (GHZ):      1.7146250      0.7826010      0.6626275
 Standard basis: 6-31+G(d,p) (6D, 7F)
 There are   309 symmetry adapted basis functions of A   symmetry.
 Integral buffers will be    131072 words long.
 Raffenetti 2 integral format.
 Two-electron integral symmetry is turned on.
   309 basis functions,   492 primitive gaussians,   309 cartesian basis functions
    44 alpha electrons       44 beta electrons
       nuclear repulsion energy       701.7210529043 Hartrees.
 NAtoms=   31 NActive=   31 NUniq=   31 SFac= 1.00D+00 NAtFMM=   60 NAOKFM=F Big=F
 ------------------------------------------------------------------------------
 Polarizable Continuum Model (PCM)
 =================================
 Model                : PCM.
 Atomic radii         : UFF (Universal Force Field).
 Polarization charges : Total charges.
 Charge compensation  : None.
 Solution method      : Matrix inversion.
 Cavity type          : Scaled VdW (van der Waals Surface) (Alpha=1.100).
 Cavity algorithm     : GePol (No added spheres)
                        Default sphere list used, NSphG=   31.
                        Lebedev-Laikov grids with approx.  5.0 points / Ang**2.
                        Smoothing algorithm: Karplus/York (Gamma=1.0000).
                        Polarization charges: spherical gaussians, with
                                              point-specific exponents (IZeta= 3).
                        Self-potential: point-specific (ISelfS= 7).
                        Self-field    : sphere-specific E.n sum rule (ISelfD= 2).
 Solvent              : Benzene, Eps=   2.270600 Eps(inf)=   2.253301
 ------------------------------------------------------------------------------
 One-electron integrals computed using PRISM.
 NBasis=   309 RedAO= T  NBF=   309
 NBsUse=   309 1.00D-06 NBFU=   309
 Harris functional with IExCor=  908 diagonalized for initial guess.
 ExpMin= 4.38D-02 ExpMax= 5.48D+03 ExpMxC= 8.25D+02 IAcc=2 IRadAn=         4 AccDes= 0.00D+00
 HarFok:  IExCor=  908 AccDes= 0.00D+00 IRadAn=         4 IDoV= 1
 ScaDFX=  1.000000  1.000000  1.000000  1.000000
 FoFCou: FMM=F IPFlag=           0 FMFlag=      100000 FMFlg1=           0
         NFxFlg=           0 DoJE=T BraDBF=F KetDBF=T FulRan=T
         Omega=  0.000000  0.000000  1.000000  0.000000  0.000000 ICntrl=     500 IOpCl=  0
         NMat0=    1 NMatS0=    1 NMatT0=    0 NMatD0=    1 NMtDS0=    0 NMtDT0=    0
         I1Cent=           4 NGrid=           0.
 Petite list used in FoFCou.
 Initial guess orbital symmetries:
       Occupied  (A) (A) (A) (A) (A) (A) (A) (A) (A) (A) (A) (A)
                 (A) (A) (A) (A) (A) (A) (A) (A) (A) (A) (A) (A)
                 (A) (A) (A) (A) (A) (A) (A) (A) (A) (A) (A) (A)
                 (A) (A) (A) (A) (A) (A) (A) (A)
       Virtual   (A) (A) (A) (A) (A) (A) (A) (A) (A) (A) (A) (A)
                 (A) (A) (A) (A) (A) (A) (A) (A) (A) (A) (A) (A)
                 (A) (A) (A) (A) (A) (A) (A) (A) (A) (A) (A) (A)
                 (A) (A) (A) (A) (A) (A) (A) (A) (A) (A) (A) (A)
                 (A) (A) (A) (A) (A) (A) (A) (A) (A) (A) (A) (A)
                 (A) (A) (A) (A) (A) (A) (A) (A) (A) (A) (A) (A)
                 (A) (A) (A) (A) (A) (A) (A) (A) (A) (A) (A) (A)
                 (A) (A) (A) (A) (A) (A) (A) (A) (A) (A) (A) (A)
                 (A) (A) (A) (A) (A) (A) (A) (A) (A) (A) (A) (A)
                 (A) (A) (A) (A) (A) (A) (A) (A) (A) (A) (A) (A)
                 (A) (A) (A) (A) (A) (A) (A) (A) (A) (A) (A) (A)
                 (A) (A) (A) (A) (A) (A) (A) (A) (A) (A) (A) (A)
                 (A) (A) (A) (A) (A) (A) (A) (A) (A) (A) (A) (A)
                 (A) (A) (A) (A) (A) (A) (A) (A) (A) (A) (A) (A)
                 (A) (A) (A) (A) (A) (A) (A) (A) (A) (A) (A) (A)
                 (A) (A) (A) (A) (A) (A) (A) (A) (A) (A) (A) (A)
                 (A) (A) (A) (A) (A) (A) (A) (A) (A) (A) (A) (A)
                 (A) (A) (A) (A) (A) (A) (A) (A) (A) (A) (A) (A)
                 (A) (A) (A) (A) (A) (A) (A) (A) (A) (A) (A) (A)
                 (A) (A) (A) (A) (A) (A) (A) (A) (A) (A) (A) (A)
                 (A) (A) (A) (A) (A) (A) (A) (A) (A) (A) (A) (A)
                 (A) (A) (A) (A) (A) (A) (A) (A) (A) (A) (A) (A)
                 (A)
 The electronic state of the initial guess is 1-A.
 Requested convergence on RMS density matrix=1.00D-08 within 128 cycles.
 Requested convergence on MAX density matrix=1.00D-06.
 Requested convergence on             energy=1.00D-06.
 No special actions if energy rises.
 Error on total polarization charges =  0.00927
 SCF Done:  E(RmPW1PW91) =  -468.277034015     A.U. after   12 cycles
             Convg  =    0.5826D-08             -V/T =  2.0099
 Range of M.O.s used for correlation:     1   309
 NBasis=   309 NAE=    44 NBE=    44 NFC=     0 NFV=     0
 NROrb=    309 NOA=    44 NOB=    44 NVA=   265 NVB=   265

 **** Warning!!: The largest alpha MO coefficient is  0.10329900D+03

 NEqPCM:  Using equilibrium solvation (IEInf=0, Eps=   2.2706, EpsInf=   2.2533)
          Differentiating once with respect to magnetic field using GIAOs.
          Electric field/nuclear overlap derivatives assumed to be zero.
 FoFCou: FMM=F IPFlag=           0 FMFlag=    10101102 FMFlg1=           0
         NFxFlg=    40000000 DoJE=F BraDBF=F KetDBF=T FulRan=T
         Omega=  0.000000  0.000000  1.000000  0.000000  0.000000 ICntrl=    6100 IOpCl=  0
         NMat0=    1 NMatS0=    1 NMatT0=    0 NMatD0=    1 NMtDS0=    0 NMtDT0=    0
         I1Cent=           7 NGrid=        1899.
 Symmetry not used in FoFCou.
          There are     3 degrees of freedom in the 1st order CPHF.  IDoFFX=0.
      3 vectors produced by pass  0 Test12= 3.89D-13 3.33D-08 XBig12= 2.71D+01 7.01D-01.
 AX will form     3 AO Fock derivatives at one time.
      3 vectors produced by pass  1 Test12= 3.89D-13 3.33D-08 XBig12= 5.93D-02 3.45D-02.
      3 vectors produced by pass  2 Test12= 3.89D-13 3.33D-08 XBig12= 1.68D-04 3.02D-03.
      3 vectors produced by pass  3 Test12= 3.89D-13 3.33D-08 XBig12= 8.83D-07 1.82D-04.
      3 vectors produced by pass  4 Test12= 3.89D-13 3.33D-08 XBig12= 2.33D-09 7.95D-06.
      3 vectors produced by pass  5 Test12= 3.89D-13 3.33D-08 XBig12= 5.46D-12 3.59D-07.
 Inverted reduced A of dimension    18 with in-core refinement.
 Calculating GIAO nuclear magnetic shielding tensors.
 SCF GIAO Magnetic shielding tensor (ppm):
      1  C    Isotropic =   165.1649   Anisotropy =     1.9687
   XX=   165.5930   YX=     0.8029   ZX=    -2.0424
   XY=    -0.8014   YY=   164.3273   ZY=     1.9682
   XZ=     0.3702   YZ=    -0.9829   ZZ=   165.5743
   Eigenvalues:   164.0891   164.9282   166.4773
      2  C    Isotropic =   124.9720   Anisotropy =    56.7297
   XX=   131.6373   YX=     7.3333   ZX=   -23.0261
   XY=    12.5574   YY=   106.9903   ZY=   -17.9434
   XZ=   -22.1687   YZ=   -13.7679   ZZ=   136.2884
   Eigenvalues:   100.0522   112.0720   162.7918
      3  C    Isotropic =   176.8392   Anisotropy =    18.7978
   XX=   180.5737   YX=    -7.1796   ZX=     5.7931
   XY=    -9.2380   YY=   179.7943   ZY=     0.9577
   XZ=     3.0630   YZ=    -4.1095   ZZ=   170.1496
   Eigenvalues:   168.2486   172.8980   189.3711
      4  C    Isotropic =   148.4728   Anisotropy =    25.3424
   XX=   156.2921   YX=     6.7417   ZX=   -10.3588
   XY=     9.5874   YY=   137.7151   ZY=    -9.9213
   XZ=    -3.5391   YZ=    -4.0620   ZZ=   151.4112
   Eigenvalues:   133.5059   146.5447   165.3677
      5  C    Isotropic =   167.6705   Anisotropy =    18.2513
   XX=   172.3958   YX=     6.2515   ZX=     3.4618
   XY=     5.1989   YY=   170.6029   ZY=     3.8791
   XZ=     4.1631   YZ=     8.8388   ZZ=   160.0128
   Eigenvalues:   156.9503   166.2231   179.8380
      6  C    Isotropic =   159.1075   Anisotropy =    14.3924
   XX=   164.1084   YX=    -6.7654   ZX=     2.6573
   XY=    -1.1269   YY=   163.9397   ZY=    -3.4560
   XZ=     0.9797   YZ=    -3.5567   ZZ=   149.2744
   Eigenvalues:   148.4236   160.1965   168.7024
      7  C    Isotropic =   173.4585   Anisotropy =    34.2082
   XX=   186.5756   YX=     0.5163   ZX=   -15.5453
   XY=     2.0464   YY=   171.6924   ZY=     6.3857
   XZ=   -20.5889   YZ=     5.1278   ZZ=   162.1075
   Eigenvalues:   150.9586   173.1529   196.2640
      8  O    Isotropic =   265.9442   Anisotropy =    76.0859
   XX=   272.9327   YX=    46.3818   ZX=    15.4193
   XY=    48.4287   YY=   262.0839   ZY=   -20.0978
   XZ=    28.9927   YZ=    -4.6913   ZZ=   262.8160
   Eigenvalues:   208.9426   272.2218   316.6681
      9  C    Isotropic =   167.0408   Anisotropy =    13.2095
   XX=   173.3408   YX=     5.7008   ZX=    -3.7154
   XY=     2.4759   YY=   167.0909   ZY=     3.0155
   XZ=    -5.1999   YZ=     3.7581   ZZ=   160.6908
   Eigenvalues:   157.1696   168.1057   175.8472
     10  C    Isotropic =   174.5059   Anisotropy =    29.0210
   XX=   173.8104   YX=    14.8715   ZX=     3.5755
   XY=     8.6193   YY=   183.2685   ZY=     7.0111
   XZ=     1.5222   YZ=    10.0296   ZZ=   166.4386
   Eigenvalues:   162.0970   167.5674   193.8532
     11  C    Isotropic =   173.6494   Anisotropy =    34.8045
   XX=   174.8435   YX=   -17.9320   ZX=    -4.5624
   XY=   -14.7704   YY=   184.2285   ZY=     3.6805
   XZ=    -4.0451   YZ=    -2.0136   ZZ=   161.8761
   Eigenvalues:   159.0863   165.0094   196.8524
     12  H    Isotropic =    29.8059   Anisotropy =     9.6613
   XX=    29.0269   YX=    -1.3109   ZX=     2.6710
   XY=    -1.3822   YY=    27.1132   ZY=    -3.4693
   XZ=     3.0679   YZ=    -3.5212   ZZ=    33.2775
   Eigenvalues:    25.5344    27.6365    36.2467
     13  H    Isotropic =    27.4128   Anisotropy =     6.9306
   XX=    29.9492   YX=    -2.3506   ZX=    -2.6693
   XY=    -0.7363   YY=    28.1342   ZY=     0.1036
   XZ=    -3.3850   YZ=     1.6075   ZZ=    24.1550
   Eigenvalues:    22.8554    27.3498    32.0332
     14  H    Isotropic =    29.3497   Anisotropy =     7.1619
   XX=    28.9895   YX=    -0.0270   ZX=    -2.5418
   XY=    -0.1627   YY=    26.6644   ZY=     0.3042
   XZ=    -3.4149   YZ=    -0.1924   ZZ=    32.3951
   Eigenvalues:    26.6583    27.2664    34.1243
     15  H    Isotropic =    30.1818   Anisotropy =     8.3359
   XX=    31.3301   YX=     1.5115   ZX=     1.9129
   XY=     2.1612   YY=    30.4035   ZY=     4.3313
   XZ=     1.7926   YZ=     4.7280   ZZ=    28.8118
   Eigenvalues:    24.9985    29.8078    35.7391
     16  H    Isotropic =    30.2519   Anisotropy =     5.7891
   XX=    30.8593   YX=    -1.3687   ZX=     0.9102
   XY=    -1.6690   YY=    28.7837   ZY=    -2.7170
   XZ=     1.2393   YZ=    -3.2671   ZZ=    31.1125
   Eigenvalues:    26.6264    30.0180    34.1112
     17  H    Isotropic =    30.3726   Anisotropy =    10.0411
   XX=    29.7920   YX=    -3.0965   ZX=     0.8638
   XY=    -3.7345   YY=    35.3212   ZY=     1.6641
   XZ=     0.3781   YZ=     1.4177   ZZ=    26.0045
   Eigenvalues:    25.3608    28.6902    37.0666
     18  H    Isotropic =    29.8779   Anisotropy =     6.7749
   XX=    30.7933   YX=     1.3259   ZX=    -0.8752
   XY=     2.1608   YY=    29.9802   ZY=    -4.1910
   XZ=    -0.6514   YZ=    -3.8293   ZZ=    28.8601
   Eigenvalues:    25.3075    29.9317    34.3945
     19  H    Isotropic =    30.3670   Anisotropy =     8.1566
   XX=    29.7766   YX=     1.4649   ZX=     1.9224
   XY=     1.8708   YY=    32.0462   ZY=     3.4160
   XZ=     2.9326   YZ=     3.7954   ZZ=    29.2781
   Eigenvalues:    26.3536    28.9426    35.8047
     20  H    Isotropic =    29.6846   Anisotropy =     6.6596
   XX=    29.6204   YX=    -0.0577   ZX=    -1.4426
   XY=    -0.7218   YY=    25.9463   ZY=     1.0355
   XZ=    -1.5693   YZ=     0.7912   ZZ=    33.4871
   Eigenvalues:    25.8248    29.1046    34.1243
     21  H    Isotropic =    29.3514   Anisotropy =     4.6471
   XX=    30.8075   YX=    -0.9683   ZX=    -1.8854
   XY=    -1.1320   YY=    26.6015   ZY=    -3.0721
   XZ=    -0.4406   YZ=    -2.9214   ZZ=    30.6451
   Eigenvalues:    24.6535    30.9512    32.4494
     22  H    Isotropic =    30.6855   Anisotropy =     9.8132
   XX=    35.3021   YX=     3.8091   ZX=     1.6689
   XY=     3.0420   YY=    29.5234   ZY=     2.0434
   XZ=     0.9518   YZ=     0.9517   ZZ=    27.2310
   Eigenvalues:    26.4693    28.3596    37.2276
     23  H    Isotropic =    30.7668   Anisotropy =    11.0988
   XX=    34.2599   YX=    -5.0663   ZX=    -2.2005
   XY=    -4.0646   YY=    31.3866   ZY=     0.9193
   XZ=    -1.9517   YZ=     1.9799   ZZ=    26.6538
   Eigenvalues:    26.0955    28.0389    38.1660
     24  H    Isotropic =    30.9873   Anisotropy =    16.4931
   XX=    32.4191   YX=     9.3329   ZX=     2.3475
   XY=     8.9753   YY=    32.9702   ZY=     0.8366
   XZ=     0.5112   YZ=     0.1979   ZZ=    27.5727
   Eigenvalues:    23.4268    27.5525    41.9827
     25  H    Isotropic =    29.8675   Anisotropy =     5.2723
   XX=    30.8286   YX=    -0.3672   ZX=     1.3910
   XY=    -0.6270   YY=    26.6540   ZY=    -1.0450
   XZ=     1.6482   YZ=    -1.4461   ZZ=    32.1199
   Eigenvalues:    26.3769    29.8432    33.3824
     26  H    Isotropic =    30.9769   Anisotropy =     8.8242
   XX=    31.3364   YX=     1.4879   ZX=     3.8314
   XY=     1.7723   YY=    28.2027   ZY=     2.0802
   XZ=     3.5654   YZ=     1.4316   ZZ=    33.3916
   Eigenvalues:    27.4959    28.5751    36.8597
     27  H    Isotropic =    30.2663   Anisotropy =     8.2333
   XX=    30.4645   YX=     0.3368   ZX=    -0.3089
   XY=    -0.7226   YY=    35.7238   ZY=     0.3818
   XZ=    -0.6361   YZ=     0.6222   ZZ=    24.6104
   Eigenvalues:    24.5515    30.4922    35.7552
     28  H    Isotropic =    30.7702   Anisotropy =    10.3835
   XX=    34.3023   YX=     3.3431   ZX=    -3.8635
   XY=     4.1190   YY=    29.8712   ZY=    -0.8814
   XZ=    -3.2183   YZ=    -0.6546   ZZ=    28.1372
   Eigenvalues:    26.2055    28.4127    37.6926
     29  H    Isotropic =    30.9960   Anisotropy =     8.7758
   XX=    31.8734   YX=    -3.1782   ZX=     3.2501
   XY=    -3.4461   YY=    30.3175   ZY=    -2.9306
   XZ=     2.4241   YZ=    -2.0439   ZZ=    30.7973
   Eigenvalues:    27.6600    28.4815    36.8466
     30  H    Isotropic =    30.3308   Anisotropy =     8.7889
   XX=    30.4497   YX=    -0.6978   ZX=    -0.4587
   XY=     0.6526   YY=    34.3212   ZY=     4.5032
   XZ=    -0.6819   YZ=     4.1000   ZZ=    26.2216
   Eigenvalues:    24.3201    30.4823    36.1901
     31  H    Isotropic =    30.7114   Anisotropy =    10.6346
   XX=    34.0698   YX=    -0.7400   ZX=    -5.2525
   XY=    -2.1250   YY=    28.4103   ZY=     1.0353
   XZ=    -5.1649   YZ=     0.5315   ZZ=    29.6542
   Eigenvalues:    26.1951    28.1380    37.8012
 End of Minotr Frequency-dependent properties file   721 does not exist.
 End of Minotr Frequency-dependent properties file   722 does not exist.

 **********************************************************************

            Population analysis using the SCF density.

 **********************************************************************

 Orbital symmetries:
       Occupied  (A) (A) (A) (A) (A) (A) (A) (A) (A) (A) (A) (A)
                 (A) (A) (A) (A) (A) (A) (A) (A) (A) (A) (A) (A)
                 (A) (A) (A) (A) (A) (A) (A) (A) (A) (A) (A) (A)
                 (A) (A) (A) (A) (A) (A) (A) (A)
       Virtual   (A) (A) (A) (A) (A) (A) (A) (A) (A) (A) (A) (A)
                 (A) (A) (A) (A) (A) (A) (A) (A) (A) (A) (A) (A)
                 (A) (A) (A) (A) (A) (A) (A) (A) (A) (A) (A) (A)
                 (A) (A) (A) (A) (A) (A) (A) (A) (A) (A) (A) (A)
                 (A) (A) (A) (A) (A) (A) (A) (A) (A) (A) (A) (A)
                 (A) (A) (A) (A) (A) (A) (A) (A) (A) (A) (A) (A)
                 (A) (A) (A) (A) (A) (A) (A) (A) (A) (A) (A) (A)
                 (A) (A) (A) (A) (A) (A) (A) (A) (A) (A) (A) (A)
                 (A) (A) (A) (A) (A) (A) (A) (A) (A) (A) (A) (A)
                 (A) (A) (A) (A) (A) (A) (A) (A) (A) (A) (A) (A)
                 (A) (A) (A) (A) (A) (A) (A) (A) (A) (A) (A) (A)
                 (A) (A) (A) (A) (A) (A) (A) (A) (A) (A) (A) (A)
                 (A) (A) (A) (A) (A) (A) (A) (A) (A) (A) (A) (A)
                 (A) (A) (A) (A) (A) (A) (A) (A) (A) (A) (A) (A)
                 (A) (A) (A) (A) (A) (A) (A) (A) (A) (A) (A) (A)
                 (A) (A) (A) (A) (A) (A) (A) (A) (A) (A) (A) (A)
                 (A) (A) (A) (A) (A) (A) (A) (A) (A) (A) (A) (A)
                 (A) (A) (A) (A) (A) (A) (A) (A) (A) (A) (A) (A)
                 (A) (A) (A) (A) (A) (A) (A) (A) (A) (A) (A) (A)
                 (A) (A) (A) (A) (A) (A) (A) (A) (A) (A) (A) (A)
                 (A) (A) (A) (A) (A) (A) (A) (A) (A) (A) (A) (A)
                 (A) (A) (A) (A) (A) (A) (A) (A) (A) (A) (A) (A)
                 (A)
 The electronic state is 1-A.
 Alpha  occ. eigenvalues --  -19.24311 -10.29402 -10.25269 -10.24908 -10.24524
 Alpha  occ. eigenvalues --  -10.24308 -10.23655 -10.23295 -10.23254 -10.23248
 Alpha  occ. eigenvalues --  -10.22733  -1.04827  -0.85739  -0.81854  -0.76216
 Alpha  occ. eigenvalues --   -0.75459  -0.70112  -0.69527  -0.62944  -0.62233
 Alpha  occ. eigenvalues --   -0.58830  -0.53316  -0.50750  -0.49794  -0.47824
 Alpha  occ. eigenvalues --   -0.46400  -0.44177  -0.43731  -0.43055  -0.41353
 Alpha  occ. eigenvalues --   -0.39992  -0.39578  -0.39242  -0.38222  -0.36895
 Alpha  occ. eigenvalues --   -0.36046  -0.35842  -0.34263  -0.33866  -0.33030
 Alpha  occ. eigenvalues --   -0.31824  -0.30769  -0.29646  -0.27485
 Alpha virt. eigenvalues --    0.00357   0.01802   0.02186   0.02417   0.03861
 Alpha virt. eigenvalues --    0.04211   0.04546   0.05105   0.05409   0.06691
 Alpha virt. eigenvalues --    0.07196   0.07430   0.08179   0.08482   0.09556
 Alpha virt. eigenvalues --    0.09987   0.10297   0.10653   0.11459   0.11755
 Alpha virt. eigenvalues --    0.12158   0.12828   0.13564   0.13955   0.15075
 Alpha virt. eigenvalues --    0.15690   0.16103   0.16522   0.16847   0.17340
 Alpha virt. eigenvalues --    0.17903   0.18540   0.18929   0.19092   0.19566
 Alpha virt. eigenvalues --    0.20156   0.20916   0.21451   0.21484   0.21685
 Alpha virt. eigenvalues --    0.22409   0.22882   0.23294   0.24220   0.24571
 Alpha virt. eigenvalues --    0.25148   0.25307   0.26452   0.27234   0.27685
 Alpha virt. eigenvalues --    0.27803   0.28538   0.29234   0.29442   0.30247
 Alpha virt. eigenvalues --    0.30830   0.31333   0.31852   0.32782   0.32915
 Alpha virt. eigenvalues --    0.34134   0.35318   0.36218   0.36931   0.37082
 Alpha virt. eigenvalues --    0.37980   0.38594   0.39533   0.41102   0.42335
 Alpha virt. eigenvalues --    0.43917   0.44405   0.46011   0.50586   0.54274
 Alpha virt. eigenvalues --    0.62018   0.63865   0.65043   0.65803   0.67027
 Alpha virt. eigenvalues --    0.67367   0.70311   0.70877   0.71751   0.72304
 Alpha virt. eigenvalues --    0.72367   0.73999   0.74981   0.76755   0.77495
 Alpha virt. eigenvalues --    0.79113   0.80132   0.82781   0.83667   0.84691
 Alpha virt. eigenvalues --    0.86221   0.87250   0.89622   0.90928   0.94423
 Alpha virt. eigenvalues --    0.95832   0.96467   0.99231   0.99937   1.00720
 Alpha virt. eigenvalues --    1.01396   1.01946   1.02757   1.04190   1.04978
 Alpha virt. eigenvalues --    1.07005   1.08353   1.09026   1.10261   1.11615
 Alpha virt. eigenvalues --    1.12015   1.14017   1.15205   1.16211   1.16279
 Alpha virt. eigenvalues --    1.17627   1.18540   1.19409   1.21444   1.23124
 Alpha virt. eigenvalues --    1.23744   1.25387   1.27120   1.30273   1.31186
 Alpha virt. eigenvalues --    1.37749   1.39756   1.40532   1.41914   1.45590
 Alpha virt. eigenvalues --    1.47815   1.51392   1.54266   1.54809   1.56533
 Alpha virt. eigenvalues --    1.59315   1.61572   1.61975   1.65027   1.69024
 Alpha virt. eigenvalues --    1.70378   1.73868   1.74792   1.78557   1.79729
 Alpha virt. eigenvalues --    1.81117   1.83147   1.84896   1.87912   1.88800
 Alpha virt. eigenvalues --    1.89305   1.89851   1.91026   1.92161   1.93172
 Alpha virt. eigenvalues --    1.96251   1.99611   2.00614   2.00930   2.03164
 Alpha virt. eigenvalues --    2.05703   2.06227   2.07283   2.08760   2.09615
 Alpha virt. eigenvalues --    2.10902   2.12871   2.14774   2.15332   2.15994
 Alpha virt. eigenvalues --    2.17145   2.17536   2.18406   2.19248   2.20386
 Alpha virt. eigenvalues --    2.21394   2.22905   2.24063   2.29545   2.30204
 Alpha virt. eigenvalues --    2.32232   2.32436   2.36227   2.37102   2.38651
 Alpha virt. eigenvalues --    2.39683   2.41391   2.42785   2.43995   2.45530
 Alpha virt. eigenvalues --    2.46319   2.51763   2.53322   2.53494   2.55319
 Alpha virt. eigenvalues --    2.57073   2.58344   2.60276   2.66193   2.66393
 Alpha virt. eigenvalues --    2.66727   2.69594   2.69938   2.71255   2.72878
 Alpha virt. eigenvalues --    2.73707   2.73851   2.75804   2.76895   2.78032
 Alpha virt. eigenvalues --    2.79982   2.81247   2.82189   2.85023   2.85998
 Alpha virt. eigenvalues --    2.87979   2.89741   2.90597   2.91519   2.92439
 Alpha virt. eigenvalues --    2.92811   2.94131   2.94634   2.95689   2.97490
 Alpha virt. eigenvalues --    2.99507   3.03043   3.05829   3.15352   3.29381
 Alpha virt. eigenvalues --    3.30332   3.30775   3.37467   3.38361   3.38863
 Alpha virt. eigenvalues --    3.40987   3.44360   3.48075   3.49325   3.50905
 Alpha virt. eigenvalues --    3.51856   3.53262   3.54698   3.55907   3.56396
 Alpha virt. eigenvalues --    3.57681   3.60657   3.61789   3.63053   4.37828
 Alpha virt. eigenvalues --    4.44730   4.45663   4.55138   4.59162   4.61172
 Alpha virt. eigenvalues --    4.69447   4.76643   4.80759   4.90681   4.96105
          Condensed to atoms (all electrons):
              1          2          3          4          5          6
     1  C    6.449438  -0.244822  -0.164140  -0.162510  -0.138730  -0.135618
     2  C   -0.244822   6.517254  -0.158839  -0.663548   0.188483  -0.080688
     3  C   -0.164140  -0.158839   6.249691  -0.755225   0.286712   0.027324
     4  C   -0.162510  -0.663548  -0.755225   8.191343  -0.172494  -0.026983
     5  C   -0.138730   0.188483   0.286712  -0.172494   5.701598   0.000942
     6  C   -0.135618  -0.080688   0.027324  -0.026983   0.000942   6.044760
     7  C    0.018987  -0.089613   0.003054   0.055862  -0.057798   0.033449
     8  O    0.085237   0.131329  -0.019641  -0.033193  -0.094199  -0.064690
     9  C    0.050976   0.058818   0.420497  -0.959681  -0.023326  -0.003265
    10  C   -0.001536  -0.125475  -0.118824   0.376427   0.011035  -0.007696
    11  C    0.028590   0.033692  -0.028802   0.012088  -0.035955  -0.004455
    12  H    0.251058   0.035164   0.020842  -0.016224   0.011296  -0.009144
    13  H    0.045724   0.158444   0.002577   0.041327  -0.021681   0.045913
    14  H    0.043155   0.003729   0.462892  -0.077149  -0.082971  -0.039855
    15  H    0.025971  -0.000924   0.327640   0.011351  -0.010747  -0.000126
    16  H    0.008699   0.126475   0.033683   0.120960   0.007576  -0.003942
    17  H   -0.082899  -0.022576  -0.075592   0.063120   0.407306   0.038026
    18  H    0.025894  -0.013357  -0.027388   0.003791   0.353136  -0.043188
    19  H   -0.091595  -0.026023  -0.010969   0.029253   0.033735   0.386577
    20  H    0.023105  -0.055770  -0.004854   0.028589  -0.037662   0.349051
    21  H   -0.095032   0.011077  -0.011747   0.010103   0.006839  -0.000806
    22  H   -0.096393   0.001215  -0.005586   0.000495   0.025886   0.009754
    23  H   -0.083183  -0.011850   0.006297   0.002909  -0.004701   0.028956
    24  H   -0.028386   0.046255  -0.001426   0.028055   0.010053  -0.045402
    25  H    0.019646   0.070191  -0.026895  -0.045606  -0.001440  -0.027266
    26  H    0.001987   0.011815  -0.006898  -0.000071  -0.000242  -0.003136
    27  H   -0.000897  -0.001084  -0.006540  -0.011589   0.005206   0.001101
    28  H   -0.000009  -0.001835  -0.009277   0.050032   0.000745   0.000283
    29  H    0.000959   0.021142  -0.002588  -0.021589  -0.000371  -0.000720
    30  H    0.000190  -0.038575   0.008669   0.012273  -0.001378   0.010528
    31  H    0.000350   0.008614  -0.004069   0.031637  -0.000566  -0.002521
              7          8          9         10         11         12
     1  C    0.018987   0.085237   0.050976  -0.001536   0.028590   0.251058
     2  C   -0.089613   0.131329   0.058818  -0.125475   0.033692   0.035164
     3  C    0.003054  -0.019641   0.420497  -0.118824  -0.028802   0.020842
     4  C    0.055862  -0.033193  -0.959681   0.376427   0.012088  -0.016224
     5  C   -0.057798  -0.094199  -0.023326   0.011035  -0.035955   0.011296
     6  C    0.033449  -0.064690  -0.003265  -0.007696  -0.004455  -0.009144
     7  C    5.435174   0.028231  -0.004380   0.000968  -0.003542  -0.003267
     8  O    0.028231   8.308610   0.020615  -0.003683   0.008813  -0.001302
     9  C   -0.004380   0.020615   6.881403  -0.262532  -0.130322   0.000844
    10  C    0.000968  -0.003683  -0.262532   5.612949  -0.110620  -0.001550
    11  C   -0.003542   0.008813  -0.130322  -0.110620   5.552669  -0.000395
    12  H   -0.003267  -0.001302   0.000844  -0.001550  -0.000395   0.583052
    13  H   -0.000651  -0.038996   0.015839   0.006452  -0.007008  -0.000171
    14  H    0.000389   0.001913   0.018972   0.000059  -0.000590  -0.000056
    15  H   -0.000125  -0.000225  -0.050657   0.019588  -0.000650  -0.000128
    16  H   -0.002452  -0.007232   0.042734  -0.040638  -0.002784   0.000009
    17  H    0.001404   0.000555  -0.010371   0.004158   0.000122  -0.001707
    18  H    0.008649   0.000276   0.020090  -0.012097   0.005193  -0.006583
    19  H    0.007896  -0.014911  -0.000365   0.000963  -0.001830  -0.001314
    20  H    0.011501   0.010380  -0.005232   0.002906   0.000434  -0.007350
    21  H    0.445735  -0.008499  -0.001779  -0.000147  -0.000002   0.004757
    22  H    0.421301  -0.001454  -0.000389   0.000155  -0.000190  -0.003768
    23  H    0.415773   0.000811  -0.000133  -0.000013   0.000081  -0.004127
    24  H    0.011593   0.217971  -0.004816   0.000964  -0.000536  -0.000002
    25  H   -0.001605  -0.000835   0.290624  -0.022209   0.013039   0.000000
    26  H   -0.000036  -0.000087  -0.102173   0.450139  -0.003787   0.000000
    27  H    0.000160  -0.000001  -0.050623   0.430049  -0.004909   0.000001
    28  H   -0.000075   0.000008  -0.131660   0.445307   0.003802   0.000000
    29  H   -0.000056  -0.000226  -0.103403  -0.009909   0.465605   0.000000
    30  H   -0.000064   0.000410  -0.065080   0.003013   0.427837   0.000000
    31  H   -0.000019  -0.000044  -0.124217  -0.006630   0.456174   0.000000
             13         14         15         16         17         18
     1  C    0.045724   0.043155   0.025971   0.008699  -0.082899   0.025894
     2  C    0.158444   0.003729  -0.000924   0.126475  -0.022576  -0.013357
     3  C    0.002577   0.462892   0.327640   0.033683  -0.075592  -0.027388
     4  C    0.041327  -0.077149   0.011351   0.120960   0.063120   0.003791
     5  C   -0.021681  -0.082971  -0.010747   0.007576   0.407306   0.353136
     6  C    0.045913  -0.039855  -0.000126  -0.003942   0.038026  -0.043188
     7  C   -0.000651   0.000389  -0.000125  -0.002452   0.001404   0.008649
     8  O   -0.038996   0.001913  -0.000225  -0.007232   0.000555   0.000276
     9  C    0.015839   0.018972  -0.050657   0.042734  -0.010371   0.020090
    10  C    0.006452   0.000059   0.019588  -0.040638   0.004158  -0.012097
    11  C   -0.007008  -0.000590  -0.000650  -0.002784   0.000122   0.005193
    12  H   -0.000171  -0.000056  -0.000128   0.000009  -0.001707  -0.006583
    13  H    0.645883  -0.000049  -0.000106  -0.004750   0.000015  -0.000034
    14  H   -0.000049   0.522757  -0.028337  -0.005402  -0.003207   0.004499
    15  H   -0.000106  -0.028337   0.564374  -0.002320  -0.002749  -0.003841
    16  H   -0.004750  -0.005402  -0.002320   0.557212  -0.000112  -0.000088
    17  H    0.000015  -0.003207  -0.002749  -0.000112   0.555574  -0.028219
    18  H   -0.000034   0.004499  -0.003841  -0.000088  -0.028219   0.554456
    19  H   -0.005106  -0.000020   0.000011  -0.000131  -0.000129  -0.000041
    20  H   -0.002495   0.000072  -0.000019  -0.000073  -0.000045   0.002292
    21  H   -0.000080  -0.000435  -0.000044   0.000005  -0.000128  -0.000076
    22  H   -0.000019  -0.000043   0.000002   0.000000   0.000106  -0.000135
    23  H    0.000006   0.000057  -0.000011  -0.000001   0.003103   0.000059
    24  H   -0.005683  -0.000274   0.000010   0.000105  -0.000005   0.000001
    25  H   -0.001131  -0.000104   0.000102   0.005050   0.000007  -0.001312
    26  H   -0.000013  -0.000043   0.000104   0.002902   0.000000  -0.000002
    27  H    0.000001   0.000119  -0.000924  -0.000033  -0.000014   0.001051
    28  H   -0.000005  -0.000004   0.000128  -0.000069   0.000000  -0.000031
    29  H    0.000085  -0.000005   0.000008   0.003635   0.000000  -0.000002
    30  H    0.003668  -0.000001   0.000000  -0.000335   0.000000   0.000003
    31  H   -0.000066   0.000002  -0.000005   0.000038   0.000000   0.000003
             19         20         21         22         23         24
     1  C   -0.091595   0.023105  -0.095032  -0.096393  -0.083183  -0.028386
     2  C   -0.026023  -0.055770   0.011077   0.001215  -0.011850   0.046255
     3  C   -0.010969  -0.004854  -0.011747  -0.005586   0.006297  -0.001426
     4  C    0.029253   0.028589   0.010103   0.000495   0.002909   0.028055
     5  C    0.033735  -0.037662   0.006839   0.025886  -0.004701   0.010053
     6  C    0.386577   0.349051  -0.000806   0.009754   0.028956  -0.045402
     7  C    0.007896   0.011501   0.445735   0.421301   0.415773   0.011593
     8  O   -0.014911   0.010380  -0.008499  -0.001454   0.000811   0.217971
     9  C   -0.000365  -0.005232  -0.001779  -0.000389  -0.000133  -0.004816
    10  C    0.000963   0.002906  -0.000147   0.000155  -0.000013   0.000964
    11  C   -0.001830   0.000434  -0.000002  -0.000190   0.000081  -0.000536
    12  H   -0.001314  -0.007350   0.004757  -0.003768  -0.004127  -0.000002
    13  H   -0.005106  -0.002495  -0.000080  -0.000019   0.000006  -0.005683
    14  H   -0.000020   0.000072  -0.000435  -0.000043   0.000057  -0.000274
    15  H    0.000011  -0.000019  -0.000044   0.000002  -0.000011   0.000010
    16  H   -0.000131  -0.000073   0.000005   0.000000  -0.000001   0.000105
    17  H   -0.000129  -0.000045  -0.000128   0.000106   0.003103  -0.000005
    18  H   -0.000041   0.002292  -0.000076  -0.000135   0.000059   0.000001
    19  H    0.562820  -0.026284  -0.000012   0.002973   0.000081   0.005526
    20  H   -0.026284   0.546235  -0.000127   0.000040  -0.000133   0.000061
    21  H   -0.000012  -0.000127   0.507548  -0.027499  -0.026488  -0.001010
    22  H    0.002973   0.000040  -0.027499   0.543094  -0.025600   0.000099
    23  H    0.000081  -0.000133  -0.026488  -0.025600   0.539762   0.000000
    24  H    0.005526   0.000061  -0.001010   0.000099   0.000000   0.410888
    25  H   -0.000062   0.000347  -0.000001   0.000000   0.000000   0.000000
    26  H    0.000000  -0.000001   0.000000   0.000000   0.000000   0.000000
    27  H    0.000000   0.000009   0.000000   0.000000   0.000000   0.000000
    28  H    0.000000   0.000001   0.000000   0.000000   0.000000   0.000000
    29  H    0.000000  -0.000006   0.000000   0.000000   0.000000  -0.000001
    30  H   -0.000001   0.000224   0.000000   0.000000   0.000000   0.000026
    31  H    0.000000  -0.000009   0.000000   0.000000   0.000000   0.000000
             25         26         27         28         29         30
     1  C    0.019646   0.001987  -0.000897  -0.000009   0.000959   0.000190
     2  C    0.070191   0.011815  -0.001084  -0.001835   0.021142  -0.038575
     3  C   -0.026895  -0.006898  -0.006540  -0.009277  -0.002588   0.008669
     4  C   -0.045606  -0.000071  -0.011589   0.050032  -0.021589   0.012273
     5  C   -0.001440  -0.000242   0.005206   0.000745  -0.000371  -0.001378
     6  C   -0.027266  -0.003136   0.001101   0.000283  -0.000720   0.010528
     7  C   -0.001605  -0.000036   0.000160  -0.000075  -0.000056  -0.000064
     8  O   -0.000835  -0.000087  -0.000001   0.000008  -0.000226   0.000410
     9  C    0.290624  -0.102173  -0.050623  -0.131660  -0.103403  -0.065080
    10  C   -0.022209   0.450139   0.430049   0.445307  -0.009909   0.003013
    11  C    0.013039  -0.003787  -0.004909   0.003802   0.465605   0.427837
    12  H    0.000000   0.000000   0.000001   0.000000   0.000000   0.000000
    13  H   -0.001131  -0.000013   0.000001  -0.000005   0.000085   0.003668
    14  H   -0.000104  -0.000043   0.000119  -0.000004  -0.000005  -0.000001
    15  H    0.000102   0.000104  -0.000924   0.000128   0.000008   0.000000
    16  H    0.005050   0.002902  -0.000033  -0.000069   0.003635  -0.000335
    17  H    0.000007   0.000000  -0.000014   0.000000   0.000000   0.000000
    18  H   -0.001312  -0.000002   0.001051  -0.000031  -0.000002   0.000003
    19  H   -0.000062   0.000000   0.000000   0.000000   0.000000  -0.000001
    20  H    0.000347  -0.000001   0.000009   0.000001  -0.000006   0.000224
    21  H   -0.000001   0.000000   0.000000   0.000000   0.000000   0.000000
    22  H    0.000000   0.000000   0.000000   0.000000   0.000000   0.000000
    23  H    0.000000   0.000000   0.000000   0.000000   0.000000   0.000000
    24  H    0.000000   0.000000   0.000000   0.000000  -0.000001   0.000026
    25  H    0.581917   0.004992  -0.004396  -0.002737   0.004958  -0.003944
    26  H    0.004992   0.526995  -0.027869  -0.027488   0.002911  -0.000037
    27  H   -0.004396  -0.027869   0.533546  -0.026247   0.000004  -0.000141
    28  H   -0.002737  -0.027488  -0.026247   0.534465  -0.000169   0.000131
    29  H    0.004958   0.002911   0.000004  -0.000169   0.526599  -0.028466
    30  H   -0.003944  -0.000037  -0.000141   0.000131  -0.028466   0.544234
    31  H   -0.003484  -0.000070   0.000094   0.002973  -0.027589  -0.026366
             31
     1  C    0.000350
     2  C    0.008614
     3  C   -0.004069
     4  C    0.031637
     5  C   -0.000566
     6  C   -0.002521
     7  C   -0.000019
     8  O   -0.000044
     9  C   -0.124217
    10  C   -0.006630
    11  C    0.456174
    12  H    0.000000
    13  H   -0.000066
    14  H    0.000002
    15  H   -0.000005
    16  H    0.000038
    17  H    0.000000
    18  H    0.000003
    19  H    0.000000
    20  H   -0.000009
    21  H    0.000000
    22  H    0.000000
    23  H    0.000000
    24  H    0.000000
    25  H   -0.003484
    26  H   -0.000070
    27  H    0.000094
    28  H    0.002973
    29  H   -0.027589
    30  H   -0.026366
    31  H    0.531759
 Mulliken atomic charges:
              1
     1  C    0.245783
     2  C    0.111280
     3  C   -0.410575
     4  C   -0.123756
     5  C   -0.366288
     6  C   -0.477161
     7  C   -0.736442
     8  O   -0.525943
     9  C    0.212992
    10  C   -0.641574
    11  C   -0.671765
    12  H    0.150063
    13  H    0.122110
    14  H    0.179929
    15  H    0.152645
    16  H    0.161280
    17  H    0.154257
    18  H    0.157004
    19  H    0.148957
    20  H    0.164813
    21  H    0.187848
    22  H    0.155957
    23  H    0.158344
    24  H    0.355935
    25  H    0.152154
    26  H    0.170104
    27  H    0.163927
    28  H    0.161729
    29  H    0.169199
    30  H    0.153181
    31  H    0.164012
 Sum of Mulliken atomic charges =   0.00000
 Mulliken charges with hydrogens summed into heavy atoms:
              1
     1  C    0.395847
     2  C    0.233390
     3  C   -0.078002
     4  C    0.037524
     5  C   -0.055026
     6  C   -0.163391
     7  C   -0.234293
     8  O   -0.170009
     9  C    0.365145
    10  C   -0.145814
    11  C   -0.185372
 Sum of Mulliken charges with hydrogens summed into heavy atoms =   0.00000
 Electronic spatial extent (au):  <R**2>=           2005.1940
 Charge=              0.0000 electrons
 Dipole moment (field-independent basis, Debye):
    X=              0.1643    Y=              0.2089    Z=              1.7936  Tot=              1.8132
 Quadrupole moment (field-independent basis, Debye-Ang):
   XX=            -70.6819   YY=            -70.0104   ZZ=            -74.4503
   XY=              2.3239   XZ=              1.2728   YZ=              2.6752
 Traceless Quadrupole moment (field-independent basis, Debye-Ang):
   XX=              1.0323   YY=              1.7038   ZZ=             -2.7361
   XY=              2.3239   XZ=              1.2728   YZ=              2.6752
 Octapole moment (field-independent basis, Debye-Ang**2):
  XXX=              6.8667  YYY=             16.3216  ZZZ=              0.9052  XYY=             12.5640
  XXY=              8.8450  XXZ=              0.2102  XZZ=             -2.2178  YZZ=             -2.7268
  YYZ=              2.7909  XYZ=              1.8308
 Hexadecapole moment (field-independent basis, Debye-Ang**3):
 XXXX=          -1763.7187 YYYY=           -647.1227 ZZZZ=           -359.4404 XXXY=             26.6370
 XXXZ=             -7.2537 YYYX=             32.1361 YYYZ=              0.2352 ZZZX=              1.1808
 ZZZY=             -2.0303 XXYY=           -386.2145 XXZZ=           -346.6324 YYZZ=           -181.9004
 XXYZ=             -7.3261 YYXZ=             -3.1518 ZZXY=              0.2314
 N-N= 7.017210529043D+02 E-N=-2.488904545433D+03  KE= 4.636910686310D+02
 1\1\GINC-COMPUTE-10-6\SP\RmPW1PW91\6-31+G(d,p)\C10H20O1\ASAROTTI.IQUIR
 \19-Sep-2024\0\\# mPW1PW91/6-31+G** nmr scrf=(pcm,solvent=benzene)\\co
 mment\\0,1\C,0,-1.887001,-0.595505,-0.79594\C,0,-0.224206,1.252684,-0.
 00938\C,0,-0.120429,-1.038314,1.007448\C,0,0.722903,0.188495,0.589697\
 C,0,-0.931282,-1.627564,-0.157604\C,0,-1.109712,0.695596,-1.140144\C,0
 ,-3.134528,-0.337065,0.066658\O,0,-0.998968,1.755582,1.090551\C,0,1.93
 2468,-0.130125,-0.338299\C,0,2.747371,-1.338301,0.155426\C,0,2.875317,
 1.079656,-0.481158\H,0,-2.243328,-1.017093,-1.74715\H,0,0.367634,2.082
 185,-0.42323\H,0,-0.803456,-0.717743,1.801584\H,0,0.517391,-1.810478,1
 .45039\H,0,1.137421,0.633489,1.506048\H,0,-1.506202,-2.496694,0.188759
 \H,0,-0.244403,-2.003455,-0.929363\H,0,-1.808673,1.481394,-1.466195\H,
 0,-0.461479,0.501561,-2.006098\H,0,-2.878901,0.09378,1.038059\H,0,-3.8
 15693,0.360324,-0.438179\H,0,-3.68679,-1.269555,0.236377\H,0,-1.652504
 ,2.373691,0.727751\H,0,1.557207,-0.378116,-1.341798\H,0,3.082341,-1.19
 1475,1.19075\H,0,2.178313,-2.272018,0.117026\H,0,3.641518,-1.473766,-0
 .464263\H,0,3.291063,1.364018,0.494363\H,0,2.37832,1.96094,-0.89843\H,
 0,3.716558,0.83702,-1.141034\\Version=AM64L-G09RevC.01\State=1-A\HF=-4
 68.277034\RMSD=5.826e-09\Dipole=-0.0646456,0.0821706,-0.705676\Quadrup
 ole=0.7674894,1.2667423,-2.0342318,-1.7277593,0.9462614,-1.9889817\PG=
 C01 [X(C10H20O1)]\\@


 What some people mistake for the high cost
 of living is really the cost of living high.
                              -- Doug Larson
 Job cpu time:  0 days  0 hours 11 minutes 43.8 seconds.
 File lengths (MBytes):  RWF=    119 Int=      0 D2E=      0 Chk=      7 Scr=      1
 Normal termination of Gaussian 09 at Thu Sep 19 08:14:55 2024.
