 Entering Gaussian System, Link 0=g09
 Input=/home/asarotti.iquir/SCF2/01_Mentol03_OptB_NMR_benzene.gjc
 Output=/home/asarotti.iquir/SCF2/01_Mentol03_OptB_NMR_benzene.log
 Initial command:
 /opt/ohpc/pub/apps/software/Gaussian/09/EM64T.SSE4.2-enabled/g09/l1.exe /local/asarotti.iquir/Gau-992064.inp -scrdir=/local/asarotti.iquir/
 Entering Link 1 = /opt/ohpc/pub/apps/software/Gaussian/09/EM64T.SSE4.2-enabled/g09/l1.exe PID=    992067.
  
 Copyright (c) 1988,1990,1992,1993,1995,1998,2003,2009,2011,
            Gaussian, Inc.  All Rights Reserved.
  
 This is part of the Gaussian(R) 09 program.  It is based on
 the Gaussian(R) 03 system (copyright 2003, Gaussian, Inc.),
 the Gaussian(R) 98 system (copyright 1998, Gaussian, Inc.),
 the Gaussian(R) 94 system (copyright 1995, Gaussian, Inc.),
 the Gaussian 92(TM) system (copyright 1992, Gaussian, Inc.),
 the Gaussian 90(TM) system (copyright 1990, Gaussian, Inc.),
 the Gaussian 88(TM) system (copyright 1988, Gaussian, Inc.),
 the Gaussian 86(TM) system (copyright 1986, Carnegie Mellon
 University), and the Gaussian 82(TM) system (copyright 1983,
 Carnegie Mellon University). Gaussian is a federally registered
 trademark of Gaussian, Inc.
  
 This software contains proprietary and confidential information,
 including trade secrets, belonging to Gaussian, Inc.
  
 This software is provided under written license and may be
 used, copied, transmitted, or stored only in accord with that
 written license.
  
 The following legend is applicable only to US Government
 contracts under FAR:
  
                    RESTRICTED RIGHTS LEGEND
  
 Use, reproduction and disclosure by the US Government is
 subject to restrictions as set forth in subparagraphs (a)
 and (c) of the Commercial Computer Software - Restricted
 Rights clause in FAR 52.227-19.
  
 Gaussian, Inc.
 340 Quinnipiac St., Bldg. 40, Wallingford CT 06492
  
  
 ---------------------------------------------------------------
 Warning -- This program may not be used in any manner that
 competes with the business of Gaussian, Inc. or will provide
 assistance to any competitor of Gaussian, Inc.  The licensee
 of this program is prohibited from giving any competitor of
 Gaussian, Inc. access to this program.  By using this program,
 the user acknowledges that Gaussian, Inc. is engaged in the
 business of creating and licensing software in the field of
 computational chemistry and represents and warrants to the
 licensee that it is not a competitor of Gaussian, Inc. and that
 it will not use this program in any manner prohibited above.
 ---------------------------------------------------------------
  

 Cite this work as:
 Gaussian 09, Revision C.01,
 M. J. Frisch, G. W. Trucks, H. B. Schlegel, G. E. Scuseria, 
 M. A. Robb, J. R. Cheeseman, G. Scalmani, V. Barone, B. Mennucci, 
 G. A. Petersson, H. Nakatsuji, M. Caricato, X. Li, H. P. Hratchian, 
 A. F. Izmaylov, J. Bloino, G. Zheng, J. L. Sonnenberg, M. Hada, 
 M. Ehara, K. Toyota, R. Fukuda, J. Hasegawa, M. Ishida, T. Nakajima, 
 Y. Honda, O. Kitao, H. Nakai, T. Vreven, J. A. Montgomery, Jr., 
 J. E. Peralta, F. Ogliaro, M. Bearpark, J. J. Heyd, E. Brothers, 
 K. N. Kudin, V. N. Staroverov, T. Keith, R. Kobayashi, J. Normand, 
 K. Raghavachari, A. Rendell, J. C. Burant, S. S. Iyengar, J. Tomasi, 
 M. Cossi, N. Rega, J. M. Millam, M. Klene, J. E. Knox, J. B. Cross, 
 V. Bakken, C. Adamo, J. Jaramillo, R. Gomperts, R. E. Stratmann, 
 O. Yazyev, A. J. Austin, R. Cammi, C. Pomelli, J. W. Ochterski, 
 R. L. Martin, K. Morokuma, V. G. Zakrzewski, G. A. Voth, 
 P. Salvador, J. J. Dannenberg, S. Dapprich, A. D. Daniels, 
 O. Farkas, J. B. Foresman, J. V. Ortiz, J. Cioslowski, 
 and D. J. Fox, Gaussian, Inc., Wallingford CT, 2010.
 
 ******************************************
 Gaussian 09:  EM64L-G09RevC.01 23-Sep-2011
                19-Sep-2024 
 ******************************************
 %nprocshared=4
 Will use up to    4 processors via shared memory.
 %mem=100mw
 --------------------------------------------------
 # mPW1PW91/6-31+G** nmr scrf=(pcm,solvent=benzene)
 --------------------------------------------------
 1/38=1/1;
 2/12=2,17=6,18=5,40=1/2;
 3/5=1,6=6,7=111,11=2,16=1,25=1,30=1,70=2201,72=12,74=-7/1,2,8,3;
 4//1;
 5/5=2,38=5,53=12/2;
 8/6=1,10=90,11=11/1;
 10/13=100,45=16/2;
 6/7=2,8=2,9=2,10=2,28=1/1;
 99/9=1/99;
 -------
 comment
 -------
 Charge =  0 Multiplicity = 1
 Symbolic Z-Matrix:
 6                     2.24408  -0.25265   0.36716 
 6                     0.11756   1.14621   0.15557 
 6                    -0.04401  -1.36684   0.22489 
 6                    -0.6696   -0.08226  -0.35684 
 6                     1.45005  -1.47942  -0.11246 
 6                     1.60543   1.03334  -0.18263 
 6                     3.728    -0.34885  -0.00531 
 8                    -0.33388   2.37035  -0.43161 
 6                    -2.2039    0.0363   -0.14211 
 6                    -2.63816   0.04215   1.33381 
 6                    -2.97824  -1.03745  -0.92392 
 1                     2.17245  -0.22075   1.4666 
 1                     0.01701   1.20401   1.25338 
 1                    -0.57323  -2.25053  -0.15098 
 1                    -0.16336  -1.37694   1.3178 
 1                    -0.51396  -0.0997   -1.44726 
 1                     1.57081  -1.57968  -1.2019 
 1                     1.86749  -2.39305   0.33189 
 1                     1.71061   1.061    -1.27714 
 1                     2.1228    1.91977   0.20473 
 1                     3.8574   -0.38508  -1.09464 
 1                     4.28971   0.51592   0.36754 
 1                     4.185    -1.25306   0.41463 
 1                    -1.21366   2.565    -0.07612 
 1                    -2.497     1.00265  -0.5794 
 1                    -2.42703  -0.91785   1.81901 
 1                    -2.13459   0.82309   1.91593 
 1                    -3.71746   0.21759   1.41446 
 1                    -2.8004   -2.04172  -0.52135 
 1                    -2.69118  -1.04441  -1.98215 
 1                    -4.0577   -0.85224  -0.87119 
 
                          Input orientation:                          
 ---------------------------------------------------------------------
 Center     Atomic      Atomic             Coordinates (Angstroms)
 Number     Number       Type             X           Y           Z
 ---------------------------------------------------------------------
      1          6           0        2.244079   -0.252645    0.367161
      2          6           0        0.117559    1.146215    0.155574
      3          6           0       -0.044005   -1.366843    0.224891
      4          6           0       -0.669601   -0.082260   -0.356839
      5          6           0        1.450049   -1.479423   -0.112456
      6          6           0        1.605429    1.033337   -0.182625
      7          6           0        3.727998   -0.348848   -0.005306
      8          8           0       -0.333875    2.370349   -0.431613
      9          6           0       -2.203898    0.036300   -0.142113
     10          6           0       -2.638161    0.042145    1.333814
     11          6           0       -2.978235   -1.037450   -0.923923
     12          1           0        2.172454   -0.220746    1.466598
     13          1           0        0.017010    1.204008    1.253384
     14          1           0       -0.573231   -2.250532   -0.150977
     15          1           0       -0.163363   -1.376939    1.317798
     16          1           0       -0.513955   -0.099698   -1.447261
     17          1           0        1.570809   -1.579676   -1.201903
     18          1           0        1.867485   -2.393051    0.331887
     19          1           0        1.710614    1.060995   -1.277140
     20          1           0        2.122799    1.919772    0.204727
     21          1           0        3.857396   -0.385078   -1.094635
     22          1           0        4.289712    0.515923    0.367540
     23          1           0        4.185004   -1.253063    0.414630
     24          1           0       -1.213659    2.564999   -0.076118
     25          1           0       -2.497003    1.002648   -0.579404
     26          1           0       -2.427028   -0.917853    1.819005
     27          1           0       -2.134586    0.823087    1.915927
     28          1           0       -3.717459    0.217593    1.414462
     29          1           0       -2.800402   -2.041718   -0.521354
     30          1           0       -2.691175   -1.044407   -1.982150
     31          1           0       -4.057699   -0.852237   -0.871192
 ---------------------------------------------------------------------
                    Distance matrix (angstroms):
                    1          2          3          4          5
     1  C    0.000000
     2  C    2.554147   0.000000
     3  C    2.548923   2.519200   0.000000
     4  C    3.007115   1.546395   1.542703   0.000000
     5  C    1.538018   2.956576   1.535798   2.550432   0.000000
     6  C    1.537494   1.529993   2.940674   2.539817   2.518537
     7  C    1.532972   3.911057   3.913734   4.419674   2.545335
     8  O    3.763507   1.430764   3.805473   2.476609   4.254996
     9  C    4.486351   2.590307   2.601661   1.553780   3.955961
    10  C    4.985738   3.193934   3.153506   2.597886   4.595686
    11  C    5.436486   3.939244   3.168277   2.561984   4.523662
    12  H    1.102229   2.794631   2.787125   3.379553   2.144656
    13  H    2.804829   1.103919   2.769620   2.172266   3.334655
    14  H    3.492457   3.479807   1.096478   2.180154   2.165584
    15  H    2.821972   2.792130   1.099452   2.176437   2.158524
    16  H    3.304886   2.126074   2.150024   1.101612   2.746390
    17  H    2.162467   3.374190   2.165332   2.824150   1.100695
    18  H    2.173570   3.952181   2.172175   3.500129   1.098367
    19  H    2.171166   2.144238   3.350997   2.796321   2.806796
    20  H    2.181855   2.149836   3.936659   3.481521   3.479616
    21  H    2.181096   4.230161   4.233904   4.596710   2.820919
    22  H    2.185249   4.224815   4.727183   5.047508   3.503639
    23  H    2.184097   4.729456   4.234792   5.053032   2.794465
    24  H    4.482362   1.959278   4.113159   2.717128   4.842934
    25  H    4.994958   2.719695   3.504080   2.136810   4.685930
    26  H    4.936557   3.674548   2.901998   2.919086   4.367794
    27  H    4.767450   2.876701   3.467842   2.851543   4.718633
    28  H    6.071071   4.141799   4.173701   3.537917   5.649290
    29  H    5.425590   4.374431   2.934291   2.899457   4.306937
    30  H    5.522941   4.154236   3.461575   2.766609   4.564508
    31  H    6.450227   4.741396   4.192369   3.512354   5.595027
                    6          7          8          9         10
     6  C    0.000000
     7  C    2.539129   0.000000
     8  O    2.368649   4.906586   0.000000
     9  C    3.937854   5.945960   3.004760   0.000000
    10  C    4.614120   6.517216   3.721156   1.538499   0.000000
    11  C    5.084059   6.803792   4.341440   1.537454   2.525580
    12  H    2.148064   2.145374   4.074146   4.669741   4.819622
    13  H    2.148098   4.215103   2.079107   2.871130   2.899367
    14  H    3.940984   4.705124   4.635579   2.808693   3.424165
    15  H    3.345045   4.236775   4.139043   2.879647   2.852837
    16  H    2.715670   4.487257   2.676771   2.139583   3.502392
    17  H    2.804989   2.756854   4.452400   4.240630   5.174514
    18  H    3.474699   2.784596   5.302725   4.764723   5.218705
    19  H    1.099905   2.770389   2.570848   4.202581   5.173681
    20  H    1.097032   2.787008   2.577440   4.731604   5.240903
    21  H    2.813364   1.097586   5.059519   6.150134   6.947816
    22  H    2.788507   1.096524   5.045305   6.531214   7.010961
    23  H    3.498363   1.096725   5.853675   6.541444   7.005572
    24  H    3.210076   5.737203   0.968651   2.716477   3.222097
    25  H    4.121689   6.395840   2.563508   1.100437   2.145436
    26  H    4.906564   6.444860   4.500982   2.192300   1.096168
    27  H    4.293697   6.279686   3.338791   2.204397   1.096501
    28  H    5.616873   7.600752   4.414860   2.178683   1.096435
    29  H    5.383498   6.764031   5.055506   2.194949   2.794719
    30  H    5.100600   6.752592   4.429626   2.188859   3.489846
    31  H    6.008372   7.849856   4.944204   2.181200   2.770751
                   11         12         13         14         15
    11  C    0.000000
    12  H    5.736828   0.000000
    13  H    4.328544   2.592551   0.000000
    14  H    2.802331   3.778276   3.775508   0.000000
    15  H    3.614425   2.610549   2.588044   1.757400   0.000000
    16  H    2.688110   3.965100   3.045498   2.511962   3.065911
    17  H    4.589671   3.054434   4.023881   2.480202   3.065509
    18  H    5.186108   2.469713   4.148765   2.492100   2.475651
    19  H    5.149130   3.063373   3.048327   4.177368   4.023558
    20  H    6.003296   2.485277   2.458932   4.978608   4.163384
    21  H    6.868812   3.070171   4.773568   4.899068   4.792716
    22  H    7.543467   2.496676   4.417484   5.618750   4.931105
    23  H    7.290419   2.494529   4.910487   4.894452   4.442899
    24  H    4.100017   4.648237   2.265925   4.858507   4.311032
    25  H    2.124212   5.242771   3.117678   3.803634   3.835060
    26  H    2.800319   4.665339   3.285657   3.015531   2.363503
    27  H    3.498298   4.454445   2.283294   4.019584   3.013900
    28  H    2.754928   5.906432   3.865905   4.292832   3.896598
    29  H    1.096467   5.656606   4.649972   2.267393   3.283045
    30  H    1.096493   6.018901   4.781037   3.048544   4.170140
    31  H    1.096507   6.684224   5.034404   3.823017   4.498093
                   16         17         18         19         20
    16  H    0.000000
    17  H    2.568419   0.000000
    18  H    3.754476   1.761280   0.000000
    19  H    2.514927   2.645439   3.813661   0.000000
    20  H    3.709420   3.811750   4.322244   1.761625   0.000000
    21  H    4.394826   2.582063   3.166491   2.594823   3.163780
    22  H    5.171819   3.774536   3.785576   3.107060   2.587047
    23  H    5.184313   3.090934   2.584050   3.786761   3.789938
    24  H    3.077374   5.118494   5.851681   3.500836   3.409860
    25  H    2.429161   4.858292   5.604461   4.265475   4.774783
    26  H    3.872689   5.054364   4.778135   5.533718   5.599905
    27  H    3.845648   5.405931   5.373016   5.003783   4.717653
    28  H    4.307269   6.167765   6.259315   6.117191   6.202377
    29  H    3.139520   4.447934   4.758216   5.526962   6.360700
    30  H    2.432872   4.365754   5.287248   4.930061   6.061611
    31  H    3.668282   5.684949   6.239336   6.090869   6.858585
                   21         22         23         24         25
    21  H    0.000000
    22  H    1.771061   0.000000
    23  H    1.771611   1.772708   0.000000
    24  H    5.954488   5.889197   6.630535   0.000000
    25  H    6.524541   6.869724   7.122187   2.083557   0.000000
    26  H    6.947455   7.019762   6.767836   4.146566   3.073367
    27  H    6.813736   6.615395   6.819202   2.801894   2.527897
    28  H    8.002325   8.080831   8.100087   3.741812   2.466034
    29  H    6.884721   7.589557   7.091822   4.892630   3.059998
    30  H    6.641248   7.529174   7.284911   4.340947   2.489143
    31  H    7.932017   8.549011   8.352015   4.516438   2.441620
                   26         27         28         29         30
    26  H    0.000000
    27  H    1.767990   0.000000
    28  H    1.765816   1.767364   0.000000
    29  H    2.622930   3.819785   3.113336   0.000000
    30  H    3.812423   4.358019   3.766016   1.772141   0.000000
    31  H    3.146514   3.777977   2.546471   1.765799   1.771594
                   31
    31  H    0.000000
 Stoichiometry    C10H20O
 Framework group  C1[X(C10H20O)]
 Deg. of freedom    87
 Full point group                 C1      NOp   1
 Largest Abelian subgroup         C1      NOp   1
 Largest concise Abelian subgroup C1      NOp   1
                         Standard orientation:                         
 ---------------------------------------------------------------------
 Center     Atomic      Atomic             Coordinates (Angstroms)
 Number     Number       Type             X           Y           Z
 ---------------------------------------------------------------------
      1          6           0        2.244079   -0.252645    0.367161
      2          6           0        0.117559    1.146215    0.155574
      3          6           0       -0.044005   -1.366843    0.224891
      4          6           0       -0.669601   -0.082260   -0.356839
      5          6           0        1.450049   -1.479423   -0.112456
      6          6           0        1.605429    1.033337   -0.182625
      7          6           0        3.727998   -0.348848   -0.005306
      8          8           0       -0.333875    2.370349   -0.431613
      9          6           0       -2.203898    0.036300   -0.142113
     10          6           0       -2.638161    0.042145    1.333814
     11          6           0       -2.978235   -1.037450   -0.923923
     12          1           0        2.172454   -0.220746    1.466598
     13          1           0        0.017010    1.204008    1.253384
     14          1           0       -0.573231   -2.250532   -0.150977
     15          1           0       -0.163363   -1.376939    1.317798
     16          1           0       -0.513955   -0.099698   -1.447261
     17          1           0        1.570809   -1.579676   -1.201903
     18          1           0        1.867485   -2.393051    0.331887
     19          1           0        1.710614    1.060995   -1.277140
     20          1           0        2.122799    1.919772    0.204727
     21          1           0        3.857396   -0.385078   -1.094635
     22          1           0        4.289712    0.515923    0.367540
     23          1           0        4.185004   -1.253063    0.414630
     24          1           0       -1.213659    2.564999   -0.076118
     25          1           0       -2.497003    1.002648   -0.579404
     26          1           0       -2.427028   -0.917853    1.819005
     27          1           0       -2.134586    0.823087    1.915927
     28          1           0       -3.717459    0.217594    1.414462
     29          1           0       -2.800402   -2.041718   -0.521354
     30          1           0       -2.691175   -1.044407   -1.982150
     31          1           0       -4.057699   -0.852236   -0.871192
 ---------------------------------------------------------------------
 Rotational constants (GHZ):      1.7588213      0.6837067      0.5651266
 Standard basis: 6-31+G(d,p) (6D, 7F)
 There are   309 symmetry adapted basis functions of A   symmetry.
 Integral buffers will be    131072 words long.
 Raffenetti 2 integral format.
 Two-electron integral symmetry is turned on.
   309 basis functions,   492 primitive gaussians,   309 cartesian basis functions
    44 alpha electrons       44 beta electrons
       nuclear repulsion energy       686.6132149203 Hartrees.
 NAtoms=   31 NActive=   31 NUniq=   31 SFac= 1.00D+00 NAtFMM=   60 NAOKFM=F Big=F
 ------------------------------------------------------------------------------
 Polarizable Continuum Model (PCM)
 =================================
 Model                : PCM.
 Atomic radii         : UFF (Universal Force Field).
 Polarization charges : Total charges.
 Charge compensation  : None.
 Solution method      : Matrix inversion.
 Cavity type          : Scaled VdW (van der Waals Surface) (Alpha=1.100).
 Cavity algorithm     : GePol (No added spheres)
                        Default sphere list used, NSphG=   31.
                        Lebedev-Laikov grids with approx.  5.0 points / Ang**2.
                        Smoothing algorithm: Karplus/York (Gamma=1.0000).
                        Polarization charges: spherical gaussians, with
                                              point-specific exponents (IZeta= 3).
                        Self-potential: point-specific (ISelfS= 7).
                        Self-field    : sphere-specific E.n sum rule (ISelfD= 2).
 Solvent              : Benzene, Eps=   2.270600 Eps(inf)=   2.253301
 ------------------------------------------------------------------------------
 One-electron integrals computed using PRISM.
 NBasis=   309 RedAO= T  NBF=   309
 NBsUse=   309 1.00D-06 NBFU=   309
 Harris functional with IExCor=  908 diagonalized for initial guess.
 ExpMin= 4.38D-02 ExpMax= 5.48D+03 ExpMxC= 8.25D+02 IAcc=2 IRadAn=         4 AccDes= 0.00D+00
 HarFok:  IExCor=  908 AccDes= 0.00D+00 IRadAn=         4 IDoV= 1
 ScaDFX=  1.000000  1.000000  1.000000  1.000000
 FoFCou: FMM=F IPFlag=           0 FMFlag=      100000 FMFlg1=           0
         NFxFlg=           0 DoJE=T BraDBF=F KetDBF=T FulRan=T
         Omega=  0.000000  0.000000  1.000000  0.000000  0.000000 ICntrl=     500 IOpCl=  0
         NMat0=    1 NMatS0=    1 NMatT0=    0 NMatD0=    1 NMtDS0=    0 NMtDT0=    0
         I1Cent=           4 NGrid=           0.
 Petite list used in FoFCou.
 Initial guess orbital symmetries:
       Occupied  (A) (A) (A) (A) (A) (A) (A) (A) (A) (A) (A) (A)
                 (A) (A) (A) (A) (A) (A) (A) (A) (A) (A) (A) (A)
                 (A) (A) (A) (A) (A) (A) (A) (A) (A) (A) (A) (A)
                 (A) (A) (A) (A) (A) (A) (A) (A)
       Virtual   (A) (A) (A) (A) (A) (A) (A) (A) (A) (A) (A) (A)
                 (A) (A) (A) (A) (A) (A) (A) (A) (A) (A) (A) (A)
                 (A) (A) (A) (A) (A) (A) (A) (A) (A) (A) (A) (A)
                 (A) (A) (A) (A) (A) (A) (A) (A) (A) (A) (A) (A)
                 (A) (A) (A) (A) (A) (A) (A) (A) (A) (A) (A) (A)
                 (A) (A) (A) (A) (A) (A) (A) (A) (A) (A) (A) (A)
                 (A) (A) (A) (A) (A) (A) (A) (A) (A) (A) (A) (A)
                 (A) (A) (A) (A) (A) (A) (A) (A) (A) (A) (A) (A)
                 (A) (A) (A) (A) (A) (A) (A) (A) (A) (A) (A) (A)
                 (A) (A) (A) (A) (A) (A) (A) (A) (A) (A) (A) (A)
                 (A) (A) (A) (A) (A) (A) (A) (A) (A) (A) (A) (A)
                 (A) (A) (A) (A) (A) (A) (A) (A) (A) (A) (A) (A)
                 (A) (A) (A) (A) (A) (A) (A) (A) (A) (A) (A) (A)
                 (A) (A) (A) (A) (A) (A) (A) (A) (A) (A) (A) (A)
                 (A) (A) (A) (A) (A) (A) (A) (A) (A) (A) (A) (A)
                 (A) (A) (A) (A) (A) (A) (A) (A) (A) (A) (A) (A)
                 (A) (A) (A) (A) (A) (A) (A) (A) (A) (A) (A) (A)
                 (A) (A) (A) (A) (A) (A) (A) (A) (A) (A) (A) (A)
                 (A) (A) (A) (A) (A) (A) (A) (A) (A) (A) (A) (A)
                 (A) (A) (A) (A) (A) (A) (A) (A) (A) (A) (A) (A)
                 (A) (A) (A) (A) (A) (A) (A) (A) (A) (A) (A) (A)
                 (A) (A) (A) (A) (A) (A) (A) (A) (A) (A) (A) (A)
                 (A)
 The electronic state of the initial guess is 1-A.
 Requested convergence on RMS density matrix=1.00D-08 within 128 cycles.
 Requested convergence on MAX density matrix=1.00D-06.
 Requested convergence on             energy=1.00D-06.
 No special actions if energy rises.
 Error on total polarization charges =  0.00937
 SCF Done:  E(RmPW1PW91) =  -468.285404318     A.U. after   12 cycles
             Convg  =    0.6986D-08             -V/T =  2.0099
 Range of M.O.s used for correlation:     1   309
 NBasis=   309 NAE=    44 NBE=    44 NFC=     0 NFV=     0
 NROrb=    309 NOA=    44 NOB=    44 NVA=   265 NVB=   265

 **** Warning!!: The largest alpha MO coefficient is  0.83837795D+02

 NEqPCM:  Using equilibrium solvation (IEInf=0, Eps=   2.2706, EpsInf=   2.2533)
          Differentiating once with respect to magnetic field using GIAOs.
          Electric field/nuclear overlap derivatives assumed to be zero.
 FoFCou: FMM=F IPFlag=           0 FMFlag=    10101102 FMFlg1=           0
         NFxFlg=    40000000 DoJE=F BraDBF=F KetDBF=T FulRan=T
         Omega=  0.000000  0.000000  1.000000  0.000000  0.000000 ICntrl=    6100 IOpCl=  0
         NMat0=    1 NMatS0=    1 NMatT0=    0 NMatD0=    1 NMtDS0=    0 NMtDT0=    0
         I1Cent=           7 NGrid=        1922.
 Symmetry not used in FoFCou.
          There are     3 degrees of freedom in the 1st order CPHF.  IDoFFX=0.
      3 vectors produced by pass  0 Test12= 3.89D-13 3.33D-08 XBig12= 3.83D+01 1.19D+00.
 AX will form     3 AO Fock derivatives at one time.
      3 vectors produced by pass  1 Test12= 3.89D-13 3.33D-08 XBig12= 8.13D-02 3.62D-02.
      3 vectors produced by pass  2 Test12= 3.89D-13 3.33D-08 XBig12= 1.43D-04 1.91D-03.
      3 vectors produced by pass  3 Test12= 3.89D-13 3.33D-08 XBig12= 4.65D-07 1.71D-04.
      3 vectors produced by pass  4 Test12= 3.89D-13 3.33D-08 XBig12= 1.18D-09 6.49D-06.
      3 vectors produced by pass  5 Test12= 3.89D-13 3.33D-08 XBig12= 3.27D-12 2.69D-07.
 Inverted reduced A of dimension    18 with in-core refinement.
 Calculating GIAO nuclear magnetic shielding tensors.
 SCF GIAO Magnetic shielding tensor (ppm):
      1  C    Isotropic =   161.9297   Anisotropy =     9.8208
   XX=   165.9677   YX=     2.1662   ZX=    -0.4671
   XY=     5.7486   YY=   162.2079   ZY=     1.5962
   XZ=    -2.5913   YZ=     2.1828   ZZ=   157.6134
   Eigenvalues:   156.0241   161.2880   168.4769
      2  C    Isotropic =   123.4134   Anisotropy =    52.1474
   XX=   114.7349   YX=    -9.6749   ZX=    11.5561
   XY=   -10.0106   YY=   143.8934   ZY=   -16.6823
   XZ=    12.9871   YZ=   -23.3451   ZZ=   111.6120
   Eigenvalues:    98.3772   113.6848   158.1784
      3  C    Isotropic =   171.7213   Anisotropy =    12.9556
   XX=   179.9364   YX=     0.0744   ZX=    -2.1031
   XY=    -1.6361   YY=   169.4068   ZY=    -2.1814
   XZ=    -2.6394   YZ=     0.1995   ZZ=   165.8208
   Eigenvalues:   165.1455   169.6601   180.3584
      4  C    Isotropic =   144.1552   Anisotropy =    10.6411
   XX=   145.1869   YX=    13.5891   ZX=    -2.9370
   XY=    -0.9288   YY=   141.0354   ZY=     0.8926
   XZ=    -6.0984   YZ=     3.6804   ZZ=   146.2434
   Eigenvalues:   134.6464   146.5700   151.2493
      5  C    Isotropic =   159.8537   Anisotropy =    20.2587
   XX=   167.1395   YX=     7.1059   ZX=    -2.1611
   XY=    11.5944   YY=   158.6214   ZY=     4.5922
   XZ=     2.9035   YZ=     1.5955   ZZ=   153.8002
   Eigenvalues:   150.6609   155.5407   173.3595
      6  C    Isotropic =   152.8420   Anisotropy =    32.3055
   XX=   164.8334   YX=   -14.7537   ZX=    -2.5928
   XY=   -13.4564   YY=   152.8080   ZY=    -9.7065
   XZ=    -0.8351   YZ=    -5.1932   ZZ=   140.8845
   Eigenvalues:   134.8004   149.3465   174.3789
      7  C    Isotropic =   172.9735   Anisotropy =    38.1587
   XX=   197.4163   YX=    -2.0083   ZX=    -2.8587
   XY=    -2.5023   YY=   163.2499   ZY=    -0.0258
   XZ=    -8.7967   YZ=     0.6635   ZZ=   158.2543
   Eigenvalues:   157.4055   163.1024   198.4127
      8  O    Isotropic =   287.4326   Anisotropy =    32.0233
   XX=   297.2015   YX=   -22.3278   ZX=    -4.1499
   XY=   -15.1125   YY=   277.6607   ZY=    -2.2820
   XZ=    -2.6781   YZ=   -17.1110   ZZ=   287.4357
   Eigenvalues:   262.2754   291.2410   308.7815
      9  C    Isotropic =   167.4933   Anisotropy =    10.4532
   XX=   172.2598   YX=    -1.7581   ZX=    -0.6870
   XY=     0.4819   YY=   159.8514   ZY=     3.9783
   XZ=    -3.3961   YZ=     6.1084   ZZ=   170.3686
   Eigenvalues:   157.8218   170.1959   174.4621
     10  C    Isotropic =   180.8022   Anisotropy =    25.3085
   XX=   173.5138   YX=    -0.2768   ZX=    -6.1869
   XY=     0.3006   YY=   172.4284   ZY=     1.4199
   XZ=    -2.2810   YZ=     5.4600   ZZ=   196.4644
   Eigenvalues:   171.6404   173.0916   197.6745
     11  C    Isotropic =   173.9042   Anisotropy =    36.4590
   XX=   171.2510   YX=    12.7506   ZX=     7.4931
   XY=    14.3529   YY=   168.9368   ZY=    18.4036
   XZ=     2.8906   YZ=    13.9171   ZZ=   181.5247
   Eigenvalues:   153.1740   170.3283   198.2102
     12  H    Isotropic =    30.1010   Anisotropy =     6.5377
   XX=    30.1533   YX=    -0.1364   ZX=     1.3724
   XY=    -0.7694   YY=    26.1025   ZY=    -0.0879
   XZ=     1.2855   YZ=     0.1004   ZZ=    34.0472
   Eigenvalues:    26.0494    29.7941    34.4595
     13  H    Isotropic =    28.0586   Anisotropy =     1.9003
   XX=    27.5819   YX=    -0.4898   ZX=     0.1368
   XY=    -1.1073   YY=    27.4897   ZY=    -0.1461
   XZ=    -0.5335   YZ=     1.0456   ZZ=    29.1040
   Eigenvalues:    26.7198    28.1305    29.3254
     14  H    Isotropic =    29.9799   Anisotropy =     8.7807
   XX=    32.8226   YX=     2.0830   ZX=     1.6057
   XY=     2.1773   YY=    33.7350   ZY=     1.7404
   XZ=     1.1730   YZ=     1.5810   ZZ=    23.3821
   Eigenvalues:    23.0055    31.1005    35.8337
     15  H    Isotropic =    30.5908   Anisotropy =     6.6639
   XX=    31.3527   YX=    -1.4997   ZX=    -2.2020
   XY=    -0.7302   YY=    27.5585   ZY=    -3.5281
   XZ=    -1.7111   YZ=    -3.3426   ZZ=    32.8611
   Eigenvalues:    25.2816    31.4574    35.0334
     16  H    Isotropic =    30.4227   Anisotropy =     3.3152
   XX=    31.9970   YX=     0.0532   ZX=    -0.2247
   XY=     0.8098   YY=    26.7891   ZY=     0.1858
   XZ=    -0.3856   YZ=    -0.0823   ZZ=    32.4820
   Eigenvalues:    26.7526    31.8827    32.6328
     17  H    Isotropic =    30.6681   Anisotropy =     6.9597
   XX=    30.9467   YX=    -0.3151   ZX=    -1.8870
   XY=    -0.8550   YY=    28.8005   ZY=     4.1507
   XZ=    -1.2939   YZ=     3.3937   ZZ=    32.2571
   Eigenvalues:    26.3480    30.3484    35.3079
     18  H    Isotropic =    30.0159   Anisotropy =     8.9812
   XX=    30.6780   YX=    -2.2877   ZX=     0.8311
   XY=    -2.5167   YY=    34.2333   ZY=    -2.3602
   XZ=     0.4969   YZ=    -2.4824   ZZ=    25.1364
   Eigenvalues:    24.5314    29.5129    36.0034
     19  H    Isotropic =    30.5847   Anisotropy =     5.1053
   XX=    31.0498   YX=    -0.0120   ZX=    -2.0128
   XY=    -0.2291   YY=    28.9067   ZY=    -2.9131
   XZ=    -1.4221   YZ=    -2.1370   ZZ=    31.7976
   Eigenvalues:    27.1790    30.5869    33.9882
     20  H    Isotropic =    29.6262   Anisotropy =     7.4948
   XX=    30.8680   YX=     2.0818   ZX=     1.2864
   XY=     1.9056   YY=    32.9185   ZY=     1.9724
   XZ=     1.1570   YZ=     1.5866   ZZ=    25.0920
   Eigenvalues:    24.6021    29.6538    34.6227
     21  H    Isotropic =    30.9234   Anisotropy =     8.3701
   XX=    32.0886   YX=    -0.4455   ZX=    -4.1089
   XY=    -0.4328   YY=    27.2146   ZY=     0.4007
   XZ=    -3.1485   YZ=     0.2898   ZZ=    33.4668
   Eigenvalues:    27.1752    29.0914    36.5034
     22  H    Isotropic =    30.5534   Anisotropy =    10.5837
   XX=    34.8459   YX=     4.5791   ZX=     2.0812
   XY=     3.2260   YY=    30.1642   ZY=     2.0899
   XZ=     1.5647   YZ=     1.4470   ZZ=    26.6500
   Eigenvalues:    25.9077    28.1433    37.6092
     23  H    Isotropic =    30.5818   Anisotropy =    10.5515
   XX=    33.8871   YX=    -4.8435   ZX=     2.0575
   XY=    -3.6930   YY=    30.9470   ZY=    -2.4801
   XZ=     1.4780   YZ=    -1.8636   ZZ=    26.9113
   Eigenvalues:    25.9629    28.1663    37.6162
     24  H    Isotropic =    30.0384   Anisotropy =    17.1424
   XX=    37.2697   YX=    -5.2266   ZX=    -5.2077
   XY=    -5.7581   YY=    31.3485   ZY=    -0.8029
   XZ=    -4.9541   YZ=     0.2314   ZZ=    21.4969
   Eigenvalues:    19.6775    28.9710    41.4666
     25  H    Isotropic =    29.6443   Anisotropy =     6.5247
   XX=    29.8658   YX=    -0.7951   ZX=     1.6114
   XY=    -0.2473   YY=    32.5886   ZY=    -2.9469
   XZ=     1.7816   YZ=    -2.6694   ZZ=    26.4785
   Eigenvalues:    24.9764    29.9625    33.9941
     26  H    Isotropic =    30.9705   Anisotropy =     7.6185
   XX=    29.4719   YX=    -0.6975   ZX=    -1.7173
   XY=    -0.8376   YY=    31.0845   ZY=    -3.7411
   XZ=    -1.4613   YZ=    -4.6647   ZZ=    32.3550
   Eigenvalues:    26.5548    30.3071    36.0495
     27  H    Isotropic =    30.6490   Anisotropy =     8.9234
   XX=    29.2561   YX=     1.7543   ZX=    -1.2360
   XY=     2.2597   YY=    29.4842   ZY=     4.4006
   XZ=    -0.3550   YZ=     5.3505   ZZ=    33.2066
   Eigenvalues:    25.0651    30.2839    36.5979
     28  H    Isotropic =    30.8653   Anisotropy =    10.9525
   XX=    36.2121   YX=    -1.9148   ZX=    -3.0148
   XY=    -1.7867   YY=    26.7957   ZY=     1.3790
   XZ=    -4.0408   YZ=     1.1679   ZZ=    29.5882
   Eigenvalues:    26.2673    28.1617    38.1670
     29  H    Isotropic =    30.5772   Anisotropy =     7.1766
   XX=    30.0386   YX=     1.8545   ZX=     1.2550
   XY=     1.1876   YY=    34.9186   ZY=    -0.4235
   XZ=     1.3199   YZ=     0.2157   ZZ=    26.7745
   Eigenvalues:    26.2843    30.0858    35.3617
     30  H    Isotropic =    30.7758   Anisotropy =    10.2241
   XX=    28.6784   YX=     1.4641   ZX=     1.7919
   XY=     0.9159   YY=    26.9262   ZY=     3.0726
   XZ=     0.7779   YZ=     1.9451   ZZ=    36.7229
   Eigenvalues:    26.0223    28.7133    37.5919
     31  H    Isotropic =    30.5564   Anisotropy =    10.7088
   XX=    37.0978   YX=     0.4181   ZX=     2.0071
   XY=     1.5851   YY=    26.9137   ZY=     1.0738
   XZ=     2.2258   YZ=     1.4604   ZZ=    27.6576
   Eigenvalues:    25.9414    28.0321    37.6956
 End of Minotr Frequency-dependent properties file   721 does not exist.
 End of Minotr Frequency-dependent properties file   722 does not exist.

 **********************************************************************

            Population analysis using the SCF density.

 **********************************************************************

 Orbital symmetries:
       Occupied  (A) (A) (A) (A) (A) (A) (A) (A) (A) (A) (A) (A)
                 (A) (A) (A) (A) (A) (A) (A) (A) (A) (A) (A) (A)
                 (A) (A) (A) (A) (A) (A) (A) (A) (A) (A) (A) (A)
                 (A) (A) (A) (A) (A) (A) (A) (A)
       Virtual   (A) (A) (A) (A) (A) (A) (A) (A) (A) (A) (A) (A)
                 (A) (A) (A) (A) (A) (A) (A) (A) (A) (A) (A) (A)
                 (A) (A) (A) (A) (A) (A) (A) (A) (A) (A) (A) (A)
                 (A) (A) (A) (A) (A) (A) (A) (A) (A) (A) (A) (A)
                 (A) (A) (A) (A) (A) (A) (A) (A) (A) (A) (A) (A)
                 (A) (A) (A) (A) (A) (A) (A) (A) (A) (A) (A) (A)
                 (A) (A) (A) (A) (A) (A) (A) (A) (A) (A) (A) (A)
                 (A) (A) (A) (A) (A) (A) (A) (A) (A) (A) (A) (A)
                 (A) (A) (A) (A) (A) (A) (A) (A) (A) (A) (A) (A)
                 (A) (A) (A) (A) (A) (A) (A) (A) (A) (A) (A) (A)
                 (A) (A) (A) (A) (A) (A) (A) (A) (A) (A) (A) (A)
                 (A) (A) (A) (A) (A) (A) (A) (A) (A) (A) (A) (A)
                 (A) (A) (A) (A) (A) (A) (A) (A) (A) (A) (A) (A)
                 (A) (A) (A) (A) (A) (A) (A) (A) (A) (A) (A) (A)
                 (A) (A) (A) (A) (A) (A) (A) (A) (A) (A) (A) (A)
                 (A) (A) (A) (A) (A) (A) (A) (A) (A) (A) (A) (A)
                 (A) (A) (A) (A) (A) (A) (A) (A) (A) (A) (A) (A)
                 (A) (A) (A) (A) (A) (A) (A) (A) (A) (A) (A) (A)
                 (A) (A) (A) (A) (A) (A) (A) (A) (A) (A) (A) (A)
                 (A) (A) (A) (A) (A) (A) (A) (A) (A) (A) (A) (A)
                 (A) (A) (A) (A) (A) (A) (A) (A) (A) (A) (A) (A)
                 (A) (A) (A) (A) (A) (A) (A) (A) (A) (A) (A) (A)
                 (A)
 The electronic state is 1-A.
 Alpha  occ. eigenvalues --  -19.24626 -10.29431 -10.25543 -10.25041 -10.24705
 Alpha  occ. eigenvalues --  -10.24177 -10.23997 -10.23705 -10.23669 -10.23492
 Alpha  occ. eigenvalues --  -10.23314  -1.05120  -0.86207  -0.82476  -0.76747
 Alpha  occ. eigenvalues --   -0.75581  -0.70561  -0.69465  -0.63189  -0.62013
 Alpha  occ. eigenvalues --   -0.58073  -0.56121  -0.52438  -0.48667  -0.47235
 Alpha  occ. eigenvalues --   -0.46130  -0.45750  -0.43691  -0.42531  -0.41766
 Alpha  occ. eigenvalues --   -0.41161  -0.39574  -0.39230  -0.38527  -0.37280
 Alpha  occ. eigenvalues --   -0.35728  -0.35344  -0.34511  -0.34130  -0.33307
 Alpha  occ. eigenvalues --   -0.32527  -0.31446  -0.30531  -0.27942
 Alpha virt. eigenvalues --    0.00535   0.01525   0.01983   0.02486   0.03851
 Alpha virt. eigenvalues --    0.04163   0.04425   0.05372   0.05580   0.06513
 Alpha virt. eigenvalues --    0.07200   0.07644   0.07851   0.08332   0.09265
 Alpha virt. eigenvalues --    0.09735   0.09995   0.10490   0.10832   0.11160
 Alpha virt. eigenvalues --    0.12163   0.12741   0.13402   0.14135   0.14650
 Alpha virt. eigenvalues --    0.15036   0.15437   0.15978   0.16483   0.17563
 Alpha virt. eigenvalues --    0.18280   0.18684   0.19055   0.19355   0.19800
 Alpha virt. eigenvalues --    0.20169   0.20583   0.21011   0.21708   0.22015
 Alpha virt. eigenvalues --    0.23055   0.23921   0.24282   0.24407   0.24574
 Alpha virt. eigenvalues --    0.24836   0.25623   0.26317   0.26962   0.27281
 Alpha virt. eigenvalues --    0.28002   0.28473   0.29522   0.29752   0.30181
 Alpha virt. eigenvalues --    0.30747   0.31175   0.32052   0.32924   0.33123
 Alpha virt. eigenvalues --    0.34223   0.34974   0.35322   0.36443   0.37072
 Alpha virt. eigenvalues --    0.37363   0.38029   0.39377   0.39834   0.41178
 Alpha virt. eigenvalues --    0.42207   0.42956   0.44694   0.50071   0.51284
 Alpha virt. eigenvalues --    0.62053   0.62451   0.65310   0.65863   0.67221
 Alpha virt. eigenvalues --    0.68095   0.68856   0.69795   0.70916   0.72441
 Alpha virt. eigenvalues --    0.73303   0.73951   0.75003   0.75915   0.76482
 Alpha virt. eigenvalues --    0.78544   0.79727   0.80763   0.82037   0.84460
 Alpha virt. eigenvalues --    0.85682   0.88288   0.89462   0.89922   0.90226
 Alpha virt. eigenvalues --    0.94136   0.96488   0.98461   0.99048   0.99616
 Alpha virt. eigenvalues --    1.00947   1.01626   1.02637   1.03458   1.04828
 Alpha virt. eigenvalues --    1.06090   1.06978   1.08050   1.10322   1.10880
 Alpha virt. eigenvalues --    1.11625   1.14408   1.14617   1.15668   1.16253
 Alpha virt. eigenvalues --    1.17067   1.19396   1.19890   1.20812   1.21491
 Alpha virt. eigenvalues --    1.22697   1.26334   1.27106   1.28740   1.33045
 Alpha virt. eigenvalues --    1.35975   1.39117   1.39537   1.41754   1.45246
 Alpha virt. eigenvalues --    1.47851   1.51206   1.52409   1.52881   1.57332
 Alpha virt. eigenvalues --    1.58741   1.60928   1.62383   1.64502   1.67161
 Alpha virt. eigenvalues --    1.69618   1.71423   1.76018   1.77460   1.79108
 Alpha virt. eigenvalues --    1.81604   1.84501   1.85456   1.86370   1.87814
 Alpha virt. eigenvalues --    1.89977   1.90545   1.91569   1.92816   1.93543
 Alpha virt. eigenvalues --    1.95954   1.96698   1.97824   2.01567   2.03330
 Alpha virt. eigenvalues --    2.03403   2.05201   2.05702   2.06182   2.07320
 Alpha virt. eigenvalues --    2.07737   2.10741   2.12728   2.13735   2.14187
 Alpha virt. eigenvalues --    2.15925   2.16341   2.16963   2.17805   2.19917
 Alpha virt. eigenvalues --    2.20983   2.22296   2.22851   2.24655   2.28441
 Alpha virt. eigenvalues --    2.32457   2.33023   2.34470   2.36611   2.37192
 Alpha virt. eigenvalues --    2.37331   2.39241   2.39640   2.42028   2.45213
 Alpha virt. eigenvalues --    2.46623   2.49282   2.51583   2.54032   2.55402
 Alpha virt. eigenvalues --    2.57961   2.62062   2.63670   2.65622   2.67815
 Alpha virt. eigenvalues --    2.68432   2.70288   2.71160   2.72657   2.74400
 Alpha virt. eigenvalues --    2.74818   2.75533   2.76312   2.77435   2.78085
 Alpha virt. eigenvalues --    2.79434   2.81687   2.82851   2.85422   2.86837
 Alpha virt. eigenvalues --    2.87871   2.89032   2.90647   2.91850   2.92062
 Alpha virt. eigenvalues --    2.92406   2.95100   2.96259   2.96969   2.98750
 Alpha virt. eigenvalues --    3.00370   3.06305   3.07716   3.15176   3.29213
 Alpha virt. eigenvalues --    3.29547   3.30642   3.34329   3.37460   3.38401
 Alpha virt. eigenvalues --    3.40486   3.41792   3.44779   3.47903   3.50484
 Alpha virt. eigenvalues --    3.51751   3.52838   3.53394   3.55129   3.56578
 Alpha virt. eigenvalues --    3.59221   3.59282   3.61521   3.65491   4.33316
 Alpha virt. eigenvalues --    4.44955   4.46738   4.51108   4.57588   4.58954
 Alpha virt. eigenvalues --    4.60774   4.75664   4.83875   4.86555   4.88421
          Condensed to atoms (all electrons):
              1          2          3          4          5          6
     1  C    6.581542  -0.035305  -0.139128   0.103634  -0.024255  -0.173629
     2  C   -0.035305   6.119309  -0.138457  -0.491051  -0.040607  -0.028871
     3  C   -0.139128  -0.138457   5.986695  -0.052289   0.256335  -0.057593
     4  C    0.103634  -0.491051  -0.052289   7.532437  -0.179952  -0.399976
     5  C   -0.024255  -0.040607   0.256335  -0.179952   5.774907  -0.111351
     6  C   -0.173629  -0.028871  -0.057593  -0.399976  -0.111351   6.491728
     7  C   -0.402703  -0.079444  -0.072161  -0.040770   0.060370   0.174459
     8  O    0.008530   0.390102   0.029258  -0.102168   0.021253  -0.185117
     9  C    0.081038   0.453026  -0.216410  -0.994323  -0.092127   0.041836
    10  C    0.008220  -0.042275  -0.080542   0.113282  -0.042140  -0.036064
    11  C   -0.038629  -0.173862   0.223800   0.221581   0.048872  -0.021736
    12  H    0.280194  -0.016648  -0.023893   0.026136  -0.015253  -0.017384
    13  H   -0.006443   0.279649   0.008326   0.061996   0.001220  -0.020450
    14  H    0.034686   0.017292   0.320926  -0.040883  -0.001072   0.001197
    15  H   -0.006914  -0.039893   0.407407  -0.001970  -0.044274   0.001759
    16  H   -0.000254  -0.057363  -0.022878   0.387829  -0.022336  -0.010704
    17  H   -0.093154   0.002133  -0.074317   0.026739   0.447820  -0.005607
    18  H   -0.037893   0.004776  -0.028892   0.031749   0.337771   0.035842
    19  H   -0.071128  -0.115131   0.004561   0.055854  -0.014154   0.445278
    20  H   -0.021132  -0.045195  -0.003298   0.042853   0.034865   0.343388
    21  H   -0.121782   0.003357  -0.002191   0.002577   0.004274   0.001336
    22  H   -0.111192  -0.003826  -0.010379   0.001062   0.031021   0.000670
    23  H   -0.100653  -0.006932  -0.000204   0.000772  -0.000339   0.026607
    24  H   -0.002549   0.021569   0.002459  -0.077139  -0.002865   0.044932
    25  H   -0.000581  -0.059556   0.020416   0.006362  -0.006536  -0.013451
    26  H   -0.000650  -0.014907   0.012659   0.008858  -0.004459   0.001925
    27  H    0.000993   0.017889  -0.011389  -0.013691   0.000743  -0.000734
    28  H    0.000027  -0.002223  -0.003889   0.044010   0.001366   0.000962
    29  H    0.000592  -0.004051   0.003434  -0.003606  -0.000706  -0.003109
    30  H   -0.000754  -0.000417   0.014480  -0.003752  -0.000605  -0.002453
    31  H   -0.000141  -0.006747   0.000345   0.047693   0.000872   0.001162
              7          8          9         10         11         12
     1  C   -0.402703   0.008530   0.081038   0.008220  -0.038629   0.280194
     2  C   -0.079444   0.390102   0.453026  -0.042275  -0.173862  -0.016648
     3  C   -0.072161   0.029258  -0.216410  -0.080542   0.223800  -0.023893
     4  C   -0.040770  -0.102168  -0.994323   0.113282   0.221581   0.026136
     5  C    0.060370   0.021253  -0.092127  -0.042140   0.048872  -0.015253
     6  C    0.174459  -0.185117   0.041836  -0.036064  -0.021736  -0.017384
     7  C    5.696399  -0.007662  -0.008063   0.002863  -0.003449   0.034427
     8  O   -0.007662   8.246029  -0.087284  -0.016316   0.030258  -0.000525
     9  C   -0.008063  -0.087284   7.825201  -0.079561  -0.790260  -0.002278
    10  C    0.002863  -0.016316  -0.079561   5.573456  -0.165872   0.001700
    11  C   -0.003449   0.030258  -0.790260  -0.165872   5.954462   0.001162
    12  H    0.034427  -0.000525  -0.002278   0.001700   0.001162   0.571649
    13  H    0.009569  -0.049647  -0.070063   0.019541   0.008666   0.002468
    14  H    0.000715  -0.000381   0.027363  -0.011617  -0.018083  -0.000025
    15  H    0.006977  -0.000232  -0.034015   0.014639   0.004159   0.002827
    16  H    0.007126  -0.000960  -0.008563   0.021055  -0.022166   0.000065
    17  H    0.007704  -0.000416  -0.008145   0.001420   0.003248   0.005085
    18  H   -0.016003   0.000052   0.000920   0.000992  -0.001179  -0.004523
    19  H    0.010591  -0.000388  -0.010319   0.000918   0.002746   0.004770
    20  H   -0.017747   0.001633  -0.001418  -0.001868   0.000325  -0.004209
    21  H    0.462411  -0.000090  -0.000166   0.000020   0.000117   0.004793
    22  H    0.452895  -0.000017  -0.000374  -0.000020  -0.000012  -0.003711
    23  H    0.439907   0.000026  -0.000149   0.000046  -0.000061  -0.003788
    24  H    0.001120   0.224881   0.034995  -0.016120   0.006254   0.000004
    25  H   -0.000498   0.006855   0.260356  -0.014498   0.065346   0.000001
    26  H   -0.000200   0.000118  -0.109149   0.454133   0.003720   0.000002
    27  H   -0.000089  -0.000307  -0.038671   0.406001  -0.001852  -0.000004
    28  H    0.000045   0.000225  -0.126273   0.445852  -0.000440   0.000000
    29  H   -0.000085  -0.000003  -0.119051  -0.000945   0.476203   0.000000
    30  H   -0.000086  -0.000103  -0.097010  -0.000041   0.450470   0.000000
    31  H    0.000013   0.000093  -0.135099   0.002020   0.449298   0.000000
             13         14         15         16         17         18
     1  C   -0.006443   0.034686  -0.006914  -0.000254  -0.093154  -0.037893
     2  C    0.279649   0.017292  -0.039893  -0.057363   0.002133   0.004776
     3  C    0.008326   0.320926   0.407407  -0.022878  -0.074317  -0.028892
     4  C    0.061996  -0.040883  -0.001970   0.387829   0.026739   0.031749
     5  C    0.001220  -0.001072  -0.044274  -0.022336   0.447820   0.337771
     6  C   -0.020450   0.001197   0.001759  -0.010704  -0.005607   0.035842
     7  C    0.009569   0.000715   0.006977   0.007126   0.007704  -0.016003
     8  O   -0.049647  -0.000381  -0.000232  -0.000960  -0.000416   0.000052
     9  C   -0.070063   0.027363  -0.034015  -0.008563  -0.008145   0.000920
    10  C    0.019541  -0.011617   0.014639   0.021055   0.001420   0.000992
    11  C    0.008666  -0.018083   0.004159  -0.022166   0.003248  -0.001179
    12  H    0.002468  -0.000025   0.002827   0.000065   0.005085  -0.004523
    13  H    0.613809  -0.000158   0.002978   0.005146   0.000054  -0.000027
    14  H   -0.000158   0.553563  -0.030943  -0.004058  -0.004191  -0.002604
    15  H    0.002978  -0.030943   0.548812   0.004733   0.004570  -0.004125
    16  H    0.005146  -0.004058   0.004733   0.557117   0.002438   0.000008
    17  H    0.000054  -0.004191   0.004570   0.002438   0.545064  -0.029633
    18  H   -0.000027  -0.002604  -0.004125   0.000008  -0.029633   0.553764
    19  H    0.004856  -0.000045   0.000074   0.002786   0.002696  -0.000044
    20  H   -0.005936   0.000010  -0.000034  -0.000007  -0.000044  -0.000128
    21  H   -0.000002   0.000000   0.000001  -0.000006   0.003262  -0.000153
    22  H    0.000003   0.000002   0.000002   0.000001  -0.000006   0.000006
    23  H    0.000003  -0.000003   0.000003   0.000001  -0.000217   0.002709
    24  H   -0.007458  -0.000004   0.000012  -0.000174   0.000002   0.000000
    25  H    0.000343  -0.000020  -0.000071  -0.004564   0.000000   0.000002
    26  H   -0.000028   0.000099  -0.001366  -0.000068  -0.000002   0.000005
    27  H    0.001012   0.000088  -0.000085  -0.000019   0.000000   0.000000
    28  H    0.000028  -0.000018   0.000039  -0.000086   0.000000   0.000000
    29  H    0.000001  -0.000034   0.000062  -0.000176   0.000006   0.000005
    30  H    0.000002  -0.000078   0.000038   0.003754   0.000000   0.000000
    31  H    0.000003  -0.000020  -0.000012   0.000077   0.000000   0.000000
             19         20         21         22         23         24
     1  C   -0.071128  -0.021132  -0.121782  -0.111192  -0.100653  -0.002549
     2  C   -0.115131  -0.045195   0.003357  -0.003826  -0.006932   0.021569
     3  C    0.004561  -0.003298  -0.002191  -0.010379  -0.000204   0.002459
     4  C    0.055854   0.042853   0.002577   0.001062   0.000772  -0.077139
     5  C   -0.014154   0.034865   0.004274   0.031021  -0.000339  -0.002865
     6  C    0.445278   0.343388   0.001336   0.000670   0.026607   0.044932
     7  C    0.010591  -0.017747   0.462411   0.452895   0.439907   0.001120
     8  O   -0.000388   0.001633  -0.000090  -0.000017   0.000026   0.224881
     9  C   -0.010319  -0.001418  -0.000166  -0.000374  -0.000149   0.034995
    10  C    0.000918  -0.001868   0.000020  -0.000020   0.000046  -0.016120
    11  C    0.002746   0.000325   0.000117  -0.000012  -0.000061   0.006254
    12  H    0.004770  -0.004209   0.004793  -0.003711  -0.003788   0.000004
    13  H    0.004856  -0.005936  -0.000002   0.000003   0.000003  -0.007458
    14  H   -0.000045   0.000010   0.000000   0.000002  -0.000003  -0.000004
    15  H    0.000074  -0.000034   0.000001   0.000002   0.000003   0.000012
    16  H    0.002786  -0.000007  -0.000006   0.000001   0.000001  -0.000174
    17  H    0.002696  -0.000044   0.003262  -0.000006  -0.000217   0.000002
    18  H   -0.000044  -0.000128  -0.000153   0.000006   0.002709   0.000000
    19  H    0.528554  -0.028337   0.002911  -0.000213  -0.000008  -0.000030
    20  H   -0.028337   0.536661  -0.000159   0.002594   0.000011  -0.000130
    21  H    0.002911  -0.000159   0.531725  -0.027760  -0.028037   0.000000
    22  H   -0.000213   0.002594  -0.027760   0.530510  -0.025683   0.000000
    23  H   -0.000008   0.000011  -0.028037  -0.025683   0.533416   0.000000
    24  H   -0.000030  -0.000130   0.000000   0.000000   0.000000   0.404232
    25  H    0.000014  -0.000009   0.000000   0.000000   0.000000   0.004011
    26  H    0.000000   0.000000   0.000000   0.000000   0.000000   0.000012
    27  H   -0.000002   0.000007   0.000000   0.000000   0.000000   0.000133
    28  H    0.000000   0.000000   0.000000   0.000000   0.000000  -0.000001
    29  H    0.000000   0.000000   0.000000   0.000000   0.000000   0.000003
    30  H    0.000001   0.000000   0.000000   0.000000   0.000000   0.000000
    31  H    0.000000   0.000000   0.000000   0.000000   0.000000   0.000006
             25         26         27         28         29         30
     1  C   -0.000581  -0.000650   0.000993   0.000027   0.000592  -0.000754
     2  C   -0.059556  -0.014907   0.017889  -0.002223  -0.004051  -0.000417
     3  C    0.020416   0.012659  -0.011389  -0.003889   0.003434   0.014480
     4  C    0.006362   0.008858  -0.013691   0.044010  -0.003606  -0.003752
     5  C   -0.006536  -0.004459   0.000743   0.001366  -0.000706  -0.000605
     6  C   -0.013451   0.001925  -0.000734   0.000962  -0.003109  -0.002453
     7  C   -0.000498  -0.000200  -0.000089   0.000045  -0.000085  -0.000086
     8  O    0.006855   0.000118  -0.000307   0.000225  -0.000003  -0.000103
     9  C    0.260356  -0.109149  -0.038671  -0.126273  -0.119051  -0.097010
    10  C   -0.014498   0.454133   0.406001   0.445852  -0.000945  -0.000041
    11  C    0.065346   0.003720  -0.001852  -0.000440   0.476203   0.450470
    12  H    0.000001   0.000002  -0.000004   0.000000   0.000000   0.000000
    13  H    0.000343  -0.000028   0.001012   0.000028   0.000001   0.000002
    14  H   -0.000020   0.000099   0.000088  -0.000018  -0.000034  -0.000078
    15  H   -0.000071  -0.001366  -0.000085   0.000039   0.000062   0.000038
    16  H   -0.004564  -0.000068  -0.000019  -0.000086  -0.000176   0.003754
    17  H    0.000000  -0.000002   0.000000   0.000000   0.000006   0.000000
    18  H    0.000002   0.000005   0.000000   0.000000   0.000005   0.000000
    19  H    0.000014   0.000000  -0.000002   0.000000   0.000000   0.000001
    20  H   -0.000009   0.000000   0.000007   0.000000   0.000000   0.000000
    21  H    0.000000   0.000000   0.000000   0.000000   0.000000   0.000000
    22  H    0.000000   0.000000   0.000000   0.000000   0.000000   0.000000
    23  H    0.000000   0.000000   0.000000   0.000000   0.000000   0.000000
    24  H    0.004011   0.000012   0.000133  -0.000001   0.000003   0.000000
    25  H    0.601134   0.005019  -0.003331  -0.003730   0.005205  -0.003657
    26  H    0.005019   0.527483  -0.027910  -0.027254   0.003372   0.000015
    27  H   -0.003331  -0.027910   0.542193  -0.026039   0.000017  -0.000136
    28  H   -0.003730  -0.027254  -0.026039   0.526730  -0.000181   0.000063
    29  H    0.005205   0.003372   0.000017  -0.000181   0.536779  -0.027889
    30  H   -0.003657   0.000015  -0.000136   0.000063  -0.027889   0.527411
    31  H   -0.004280  -0.000093   0.000031   0.002609  -0.028289  -0.024860
             31
     1  C   -0.000141
     2  C   -0.006747
     3  C    0.000345
     4  C    0.047693
     5  C    0.000872
     6  C    0.001162
     7  C    0.000013
     8  O    0.000093
     9  C   -0.135099
    10  C    0.002020
    11  C    0.449298
    12  H    0.000000
    13  H    0.000003
    14  H   -0.000020
    15  H   -0.000012
    16  H    0.000077
    17  H    0.000000
    18  H    0.000000
    19  H    0.000000
    20  H    0.000000
    21  H    0.000000
    22  H    0.000000
    23  H    0.000000
    24  H    0.000006
    25  H   -0.004280
    26  H   -0.000093
    27  H    0.000031
    28  H    0.002609
    29  H   -0.028289
    30  H   -0.024860
    31  H    0.529825
 Mulliken atomic charges:
              1
     1  C    0.289411
     2  C    0.093662
     3  C   -0.353191
     4  C   -0.313854
     5  C   -0.418656
     6  C   -0.524852
     7  C   -0.718630
     8  O   -0.507696
     9  C    0.304035
    10  C   -0.558281
    11  C   -0.713085
    12  H    0.156957
    13  H    0.140539
    14  H    0.158295
    15  H    0.164844
    16  H    0.162244
    17  H    0.163492
    18  H    0.156604
    19  H    0.173190
    20  H    0.167304
    21  H    0.163565
    22  H    0.164427
    23  H    0.162571
    24  H    0.361846
    25  H    0.139716
    26  H    0.168664
    27  H    0.155151
    28  H    0.168179
    29  H    0.162445
    30  H    0.165609
    31  H    0.165496
 Sum of Mulliken atomic charges =   0.00000
 Mulliken charges with hydrogens summed into heavy atoms:
              1
     1  C    0.446368
     2  C    0.234201
     3  C   -0.030052
     4  C   -0.151610
     5  C   -0.098561
     6  C   -0.184357
     7  C   -0.228067
     8  O   -0.145850
     9  C    0.443751
    10  C   -0.066287
    11  C   -0.219535
 Sum of Mulliken charges with hydrogens summed into heavy atoms =   0.00000
 Electronic spatial extent (au):  <R**2>=           2228.3027
 Charge=              0.0000 electrons
 Dipole moment (field-independent basis, Debye):
    X=             -0.9205    Y=             -1.2967    Z=              1.1590  Tot=              1.9678
 Quadrupole moment (field-independent basis, Debye-Ang):
   XX=            -69.2403   YY=            -75.9768   ZZ=            -72.5150
   XY=             -2.9485   XZ=              0.0399   YZ=              2.9728
 Traceless Quadrupole moment (field-independent basis, Debye-Ang):
   XX=              3.3371   YY=             -3.3994   ZZ=              0.0623
   XY=             -2.9485   XZ=              0.0399   YZ=              2.9728
 Octapole moment (field-independent basis, Debye-Ang**2):
  XXX=             -9.9964  YYY=             -3.2165  ZZZ=             -2.3063  XYY=             -8.2849
  XXY=             11.8812  XXZ=              0.5720  XZZ=              1.8442  YZZ=              0.8256
  YYZ=              8.8623  XYZ=             -0.6498
 Hexadecapole moment (field-independent basis, Debye-Ang**3):
 XXXX=          -2093.9066 YYYY=           -711.8331 ZZZZ=           -305.5499 XXXY=            -16.8185
 XXXZ=              7.5863 YYYX=            -31.9040 YYYZ=             12.6620 ZZZX=              1.8151
 ZZZY=              0.2357 XXYY=           -444.7665 XXZZ=           -405.1799 YYZZ=           -171.3576
 XXYZ=             -3.3290 YYXZ=              1.6069 ZZXY=             -1.6493
 N-N= 6.866132149203D+02 E-N=-2.458428542926D+03  KE= 4.636991954289D+02
 1\1\GINC-COMPUTE-10-1\SP\RmPW1PW91\6-31+G(d,p)\C10H20O1\ASAROTTI.IQUIR
 \19-Sep-2024\0\\# mPW1PW91/6-31+G** nmr scrf=(pcm,solvent=benzene)\\co
 mment\\0,1\C,0,2.244079,-0.252645,0.367161\C,0,0.117559,1.146215,0.155
 574\C,0,-0.044005,-1.366843,0.224891\C,0,-0.669601,-0.08226,-0.356839\
 C,0,1.450049,-1.479423,-0.112456\C,0,1.605429,1.033337,-0.182625\C,0,3
 .727998,-0.348848,-0.005306\O,0,-0.333875,2.370349,-0.431613\C,0,-2.20
 3898,0.0363,-0.142113\C,0,-2.638161,0.042145,1.333814\C,0,-2.978235,-1
 .03745,-0.923923\H,0,2.172454,-0.220746,1.466598\H,0,0.01701,1.204008,
 1.253384\H,0,-0.573231,-2.250532,-0.150977\H,0,-0.163363,-1.376939,1.3
 17798\H,0,-0.513955,-0.099698,-1.447261\H,0,1.570809,-1.579676,-1.2019
 03\H,0,1.867485,-2.393051,0.331887\H,0,1.710614,1.060995,-1.27714\H,0,
 2.122799,1.919772,0.204727\H,0,3.857396,-0.385078,-1.094635\H,0,4.2897
 12,0.515923,0.36754\H,0,4.185004,-1.253063,0.41463\H,0,-1.213659,2.564
 999,-0.076118\H,0,-2.497003,1.002648,-0.579404\H,0,-2.427028,-0.917853
 ,1.819005\H,0,-2.134586,0.823087,1.915927\H,0,-3.717459,0.217593,1.414
 462\H,0,-2.800402,-2.041718,-0.521354\H,0,-2.691175,-1.044407,-1.98215
 \H,0,-4.057699,-0.852237,-0.871192\\Version=EM64L-G09RevC.01\State=1-A
 \HF=-468.2854043\RMSD=6.986e-09\Dipole=-0.3621656,-0.5101771,0.4559855
 \Quadrupole=2.4810531,-2.5273893,0.0463362,-2.192104,0.029671,2.210179
 1\PG=C01 [X(C10H20O1)]\\@


 ONLY A FOOL KNOWS EVERYTHING.

               -- THE CHEMIST ANALYST, SEPTEMBER 1946
 Job cpu time:  0 days  0 hours 40 minutes 38.3 seconds.
 File lengths (MBytes):  RWF=    121 Int=      0 D2E=      0 Chk=      7 Scr=      1
 Normal termination of Gaussian 09 at Thu Sep 19 07:53:50 2024.
