 Entering Gaussian System, Link 0=g09
 Input=/home/asarotti.iquir/SCF2/01_Mentol05_OptB_NMR_benzene.gjc
 Output=/home/asarotti.iquir/SCF2/01_Mentol05_OptB_NMR_benzene.log
 Initial command:
 /opt/ohpc/pub/apps/software/Gaussian/09/AMD64.SSE4a-enabled/g09/l1.exe /local/asarotti.iquir/Gau-2480389.inp -scrdir=/local/asarotti.iquir/
 Entering Link 1 = /opt/ohpc/pub/apps/software/Gaussian/09/AMD64.SSE4a-enabled/g09/l1.exe PID=   2480390.
  
 Copyright (c) 1988,1990,1992,1993,1995,1998,2003,2009,2011,
            Gaussian, Inc.  All Rights Reserved.
  
 This is part of the Gaussian(R) 09 program.  It is based on
 the Gaussian(R) 03 system (copyright 2003, Gaussian, Inc.),
 the Gaussian(R) 98 system (copyright 1998, Gaussian, Inc.),
 the Gaussian(R) 94 system (copyright 1995, Gaussian, Inc.),
 the Gaussian 92(TM) system (copyright 1992, Gaussian, Inc.),
 the Gaussian 90(TM) system (copyright 1990, Gaussian, Inc.),
 the Gaussian 88(TM) system (copyright 1988, Gaussian, Inc.),
 the Gaussian 86(TM) system (copyright 1986, Carnegie Mellon
 University), and the Gaussian 82(TM) system (copyright 1983,
 Carnegie Mellon University). Gaussian is a federally registered
 trademark of Gaussian, Inc.
  
 This software contains proprietary and confidential information,
 including trade secrets, belonging to Gaussian, Inc.
  
 This software is provided under written license and may be
 used, copied, transmitted, or stored only in accord with that
 written license.
  
 The following legend is applicable only to US Government
 contracts under FAR:
  
                    RESTRICTED RIGHTS LEGEND
  
 Use, reproduction and disclosure by the US Government is
 subject to restrictions as set forth in subparagraphs (a)
 and (c) of the Commercial Computer Software - Restricted
 Rights clause in FAR 52.227-19.
  
 Gaussian, Inc.
 340 Quinnipiac St., Bldg. 40, Wallingford CT 06492
  
  
 ---------------------------------------------------------------
 Warning -- This program may not be used in any manner that
 competes with the business of Gaussian, Inc. or will provide
 assistance to any competitor of Gaussian, Inc.  The licensee
 of this program is prohibited from giving any competitor of
 Gaussian, Inc. access to this program.  By using this program,
 the user acknowledges that Gaussian, Inc. is engaged in the
 business of creating and licensing software in the field of
 computational chemistry and represents and warrants to the
 licensee that it is not a competitor of Gaussian, Inc. and that
 it will not use this program in any manner prohibited above.
 ---------------------------------------------------------------
  

 Cite this work as:
 Gaussian 09, Revision C.01,
 M. J. Frisch, G. W. Trucks, H. B. Schlegel, G. E. Scuseria, 
 M. A. Robb, J. R. Cheeseman, G. Scalmani, V. Barone, B. Mennucci, 
 G. A. Petersson, H. Nakatsuji, M. Caricato, X. Li, H. P. Hratchian, 
 A. F. Izmaylov, J. Bloino, G. Zheng, J. L. Sonnenberg, M. Hada, 
 M. Ehara, K. Toyota, R. Fukuda, J. Hasegawa, M. Ishida, T. Nakajima, 
 Y. Honda, O. Kitao, H. Nakai, T. Vreven, J. A. Montgomery, Jr., 
 J. E. Peralta, F. Ogliaro, M. Bearpark, J. J. Heyd, E. Brothers, 
 K. N. Kudin, V. N. Staroverov, T. Keith, R. Kobayashi, J. Normand, 
 K. Raghavachari, A. Rendell, J. C. Burant, S. S. Iyengar, J. Tomasi, 
 M. Cossi, N. Rega, J. M. Millam, M. Klene, J. E. Knox, J. B. Cross, 
 V. Bakken, C. Adamo, J. Jaramillo, R. Gomperts, R. E. Stratmann, 
 O. Yazyev, A. J. Austin, R. Cammi, C. Pomelli, J. W. Ochterski, 
 R. L. Martin, K. Morokuma, V. G. Zakrzewski, G. A. Voth, 
 P. Salvador, J. J. Dannenberg, S. Dapprich, A. D. Daniels, 
 O. Farkas, J. B. Foresman, J. V. Ortiz, J. Cioslowski, 
 and D. J. Fox, Gaussian, Inc., Wallingford CT, 2010.
 
 ******************************************
 Gaussian 09:  AM64L-G09RevC.01 23-Sep-2011
                19-Sep-2024 
 ******************************************
 %nprocshared=4
 Will use up to    4 processors via shared memory.
 %mem=100mw
 --------------------------------------------------
 # mPW1PW91/6-31+G** nmr scrf=(pcm,solvent=benzene)
 --------------------------------------------------
 1/38=1/1;
 2/12=2,17=6,18=5,40=1/2;
 3/5=1,6=6,7=111,11=2,16=1,25=1,30=1,70=2201,72=12,74=-7/1,2,8,3;
 4//1;
 5/5=2,38=5,53=12/2;
 8/6=1,10=90,11=11/1;
 10/13=100,45=16/2;
 6/7=2,8=2,9=2,10=2,28=1/1;
 99/9=1/99;
 -------
 comment
 -------
 Charge =  0 Multiplicity = 1
 Symbolic Z-Matrix:
 6                     2.29466  -0.09146   0.32682 
 6                    -0.07526   0.88485   0.33605 
 6                     0.26437  -1.57383  -0.08692 
 6                    -0.62729  -0.35171  -0.40433 
 6                     1.74712  -1.33057  -0.39987 
 6                     1.40666   1.1243    0.01337 
 6                     3.76503   0.17484  -0.01499 
 8                    -0.83741   2.07421   0.10097 
 6                    -2.13211  -0.66464  -0.14771 
 6                    -3.08046   0.19953  -0.99631 
 6                    -2.53222  -0.59843   1.3357 
 1                     2.22756  -0.2828    1.41006 
 1                    -0.17187   0.72002   1.4161 
 1                    -0.09901  -2.44128  -0.65283 
 1                     0.15916  -1.83517   0.97627 
 1                    -0.51831  -0.15106  -1.48508 
 1                     1.87297  -1.1915   -1.48489 
 1                     2.3379   -2.21637  -0.13065 
 1                     1.49982   1.36842  -1.05841 
 1                     1.74609   2.00826   0.56756 
 1                     3.88953   0.37263  -1.0876 
 1                     4.15031   1.04447   0.53059 
 1                     4.39418  -0.68672   0.23909 
 1                    -0.78319   2.26603  -0.84947 
 1                    -2.27499  -1.70552  -0.47672 
 1                    -3.02947   1.24962  -0.69524 
 1                    -2.83065   0.13391  -2.06322 
 1                    -4.1178   -0.1379   -0.88021 
 1                    -2.50112   0.43168   1.70699 
 1                    -1.87889  -1.20995   1.96942 
 1                    -3.55589  -0.96771   1.46968 
 
                          Input orientation:                          
 ---------------------------------------------------------------------
 Center     Atomic      Atomic             Coordinates (Angstroms)
 Number     Number       Type             X           Y           Z
 ---------------------------------------------------------------------
      1          6           0        2.294658   -0.091459    0.326816
      2          6           0       -0.075259    0.884852    0.336052
      3          6           0        0.264374   -1.573834   -0.086919
      4          6           0       -0.627292   -0.351712   -0.404332
      5          6           0        1.747117   -1.330567   -0.399872
      6          6           0        1.406656    1.124300    0.013365
      7          6           0        3.765030    0.174837   -0.014993
      8          8           0       -0.837411    2.074206    0.100974
      9          6           0       -2.132112   -0.664639   -0.147714
     10          6           0       -3.080455    0.199529   -0.996310
     11          6           0       -2.532224   -0.598430    1.335699
     12          1           0        2.227560   -0.282800    1.410061
     13          1           0       -0.171872    0.720024    1.416097
     14          1           0       -0.099005   -2.441276   -0.652827
     15          1           0        0.159164   -1.835166    0.976266
     16          1           0       -0.518305   -0.151061   -1.485077
     17          1           0        1.872973   -1.191497   -1.484890
     18          1           0        2.337903   -2.216365   -0.130654
     19          1           0        1.499824    1.368419   -1.058410
     20          1           0        1.746086    2.008263    0.567561
     21          1           0        3.889533    0.372634   -1.087595
     22          1           0        4.150306    1.044468    0.530585
     23          1           0        4.394175   -0.686720    0.239090
     24          1           0       -0.783194    2.266026   -0.849466
     25          1           0       -2.274993   -1.705516   -0.476720
     26          1           0       -3.029466    1.249621   -0.695241
     27          1           0       -2.830654    0.133907   -2.063218
     28          1           0       -4.117805   -0.137896   -0.880209
     29          1           0       -2.501123    0.431679    1.706987
     30          1           0       -1.878894   -1.209945    1.969422
     31          1           0       -3.555887   -0.967709    1.469679
 ---------------------------------------------------------------------
                    Distance matrix (angstroms):
                    1          2          3          4          5
     1  C    0.000000
     2  C    2.563157   0.000000
     3  C    2.547678   2.517815   0.000000
     4  C    3.023260   1.543373   1.545769   0.000000
     5  C    1.537292   2.961540   1.534811   2.568267   0.000000
     6  C    1.537813   1.535426   2.931688   2.547553   2.512578
     7  C    1.532886   3.921119   3.913773   4.440871   2.546831
     8  O    3.814573   1.432027   3.815420   2.486878   4.303848
     9  C    4.488876   2.620228   2.563879   1.558287   3.944041
    10  C    5.543210   3.357984   3.893545   2.583082   5.099253
    11  C    4.957182   3.039095   3.285759   2.591784   4.675574
    12  H    1.102059   2.796405   2.786004   3.383334   2.145810
    13  H    2.815814   1.096813   2.776896   2.161015   3.344426
    14  H    3.494419   3.470097   1.097612   2.169589   2.169292
    15  H    2.832425   2.804162   1.099875   2.173752   2.161011
    16  H    3.346531   2.141475   2.142829   1.104603   2.775075
    17  H    2.161060   3.379743   2.165201   2.850293   1.101110
    18  H    2.174023   3.957109   2.171240   3.513433   1.098246
    19  H    2.163760   2.158529   3.335713   2.812702   2.789149
    20  H    2.183511   2.152428   3.931314   3.485252   3.476164
    21  H    2.181643   4.243667   4.234604   4.625282   2.822021
    22  H    2.185242   4.233051   4.726234   5.064467   3.504548
    23  H    2.184034   4.738679   4.236568   5.073594   2.798165
    24  H    4.051487   1.953015   4.052580   2.659888   4.420417
    25  H    4.912490   3.494200   2.572483   2.133763   4.040280
    26  H    5.584746   3.150232   4.380792   2.901609   5.436944
    27  H    5.659671   3.729962   4.049856   2.800452   5.086000
    28  H    6.525239   4.343672   4.679179   3.529286   6.004207
    29  H    5.017774   2.823056   3.858517   2.929610   5.058845
    30  H    4.622521   3.210790   2.992416   2.817407   4.333135
    31  H    6.025183   4.102665   4.169506   3.531011   5.634602
                    6          7          8          9         10
     6  C    0.000000
     7  C    2.542481   0.000000
     8  O    2.438408   4.980313   0.000000
     9  C    3.968517   5.958072   3.039633   0.000000
    10  C    4.691355   6.915508   3.122450   1.538264   0.000000
    11  C    4.497904   6.486734   3.397046   1.537852   2.524987
    12  H    2.145827   2.145699   4.082062   4.645342   5.847930
    13  H    2.150081   4.224269   2.001574   2.864496   3.814509
    14  H    3.927360   4.709739   4.637137   2.746835   3.997609
    15  H    3.352887   4.245583   4.128255   2.807741   4.304204
    16  H    2.752698   4.540299   2.751218   2.157933   2.631809
    17  H    2.797344   2.758142   4.530559   4.255153   5.168183
    18  H    3.471024   2.787098   5.342777   4.731720   5.995374
    19  H    1.103166   2.764872   2.702772   4.260710   4.727485
    20  H    1.097149   2.788719   2.626120   4.764078   5.386345
    21  H    2.818119   1.097770   5.162562   6.182194   6.972735
    22  H    2.793117   1.096518   5.110993   6.545984   7.438362
    23  H    3.500859   1.096660   5.917033   6.537777   7.627696
    24  H    2.616001   5.075013   0.971118   3.301641   3.093442
    25  H    4.669323   6.342775   4.084932   1.100947   2.132590
    26  H    4.494108   6.912530   2.473662   2.183900   1.093588
    27  H    4.821605   6.906515   3.524416   2.189701   1.097725
    28  H    5.736836   7.936340   4.076408   2.181051   1.097010
    29  H    4.314953   6.503526   2.836390   2.185863   2.774407
    30  H    4.479922   6.140798   3.919366   2.200850   3.496560
    31  H    5.578905   7.556817   4.303105   2.175993   2.769401
                   11         12         13         14         15
    11  C    0.000000
    12  H    4.770817   0.000000
    13  H    2.704819   2.600570   0.000000
    14  H    3.642921   3.785159   3.778832   0.000000
    15  H    2.983668   2.622266   2.613816   1.757261   0.000000
    16  H    3.494680   3.992362   3.048871   2.472557   3.058330
    17  H    5.264334   3.054866   4.031257   2.478502   3.067367
    18  H    5.337232   2.474803   4.160984   2.502353   2.473356
    19  H    5.085043   3.057691   3.055842   4.151449   4.024951
    20  H    5.068414   2.488090   2.461328   4.969115   4.178194
    21  H    6.932120   3.070836   4.783740   4.900566   4.800995
    22  H    6.928458   2.496412   4.423869   5.622056   4.941674
    23  H    7.013227   2.495705   4.920677   4.905369   4.449458
    24  H    4.004892   4.546055   2.810091   4.760827   4.587059
    25  H    2.139315   5.084982   3.726811   2.303754   2.837798
    26  H    2.790566   5.866595   3.592223   4.712974   4.741013
    27  H    3.489701   6.150028   4.417951   4.010321   4.696246
    28  H    2.763405   6.747591   4.645367   4.637673   4.961823
    29  H    1.095421   4.791564   2.364988   4.426371   3.570667
    30  H    1.096538   4.246816   2.635313   3.400055   2.351795
    31  H    1.096450   5.824166   3.781914   4.315839   3.846757
                   16         17         18         19         20
    16  H    0.000000
    17  H    2.607819   0.000000
    18  H    3.775959   1.760815   0.000000
    19  H    2.561974   2.621888   3.796549   0.000000
    20  H    3.742121   3.803567   4.322642   1.764604   0.000000
    21  H    4.456600   2.582801   3.166419   2.589044   3.163730
    22  H    5.223802   3.774642   3.788809   3.107234   2.590471
    23  H    5.233750   3.095701   2.589359   3.779467   3.792519
    24  H    2.513260   4.406070   5.509062   2.462017   2.910612
    25  H    2.553246   4.299563   4.653981   4.902722   5.572410
    26  H    2.981892   5.533219   6.414084   4.545379   4.997610
    27  H    2.400502   4.920901   5.997713   4.613751   5.601853
    28  H    3.649992   6.112703   6.823345   5.818805   6.409934
    29  H    3.802687   5.652919   5.814227   4.953027   4.671477
    30  H    3.860829   5.099914   4.817113   5.218377   5.046044
    31  H    4.315600   6.184827   6.233536   6.116285   6.146637
                   21         22         23         24         25
    21  H    0.000000
    22  H    1.771403   0.000000
    23  H    1.771154   1.772415   0.000000
    24  H    5.047377   5.266514   6.058780   0.000000
    25  H    6.534008   7.061271   6.784404   4.258820   0.000000
    26  H    6.985384   7.286554   7.728702   2.470345   3.057747
    27  H    6.794832   7.502715   7.627071   3.195500   2.491829
    28  H    8.026276   8.470536   8.602781   4.110890   2.452793
    29  H    6.975217   6.782399   7.137974   3.584907   3.063872
    30  H    6.717489   6.595747   6.528339   4.607501   2.527073
    31  H    7.985640   8.019736   8.049645   4.850083   2.444078
                   26         27         28         29         30
    26  H    0.000000
    27  H    1.776430   0.000000
    28  H    1.773104   1.769222   0.000000
    29  H    2.592079   3.796275   3.103492   0.000000
    30  H    3.804433   4.355912   3.779207   1.775097   0.000000
    31  H    3.143334   3.771058   2.554665   1.768369   1.766558
                   31
    31  H    0.000000
 Stoichiometry    C10H20O
 Framework group  C1[X(C10H20O)]
 Deg. of freedom    87
 Full point group                 C1      NOp   1
 Largest Abelian subgroup         C1      NOp   1
 Largest concise Abelian subgroup C1      NOp   1
                         Standard orientation:                         
 ---------------------------------------------------------------------
 Center     Atomic      Atomic             Coordinates (Angstroms)
 Number     Number       Type             X           Y           Z
 ---------------------------------------------------------------------
      1          6           0        2.294658   -0.091459    0.326816
      2          6           0       -0.075259    0.884852    0.336052
      3          6           0        0.264374   -1.573834   -0.086919
      4          6           0       -0.627292   -0.351712   -0.404332
      5          6           0        1.747117   -1.330567   -0.399872
      6          6           0        1.406656    1.124300    0.013365
      7          6           0        3.765030    0.174837   -0.014993
      8          8           0       -0.837411    2.074206    0.100974
      9          6           0       -2.132112   -0.664639   -0.147714
     10          6           0       -3.080455    0.199529   -0.996310
     11          6           0       -2.532224   -0.598430    1.335699
     12          1           0        2.227560   -0.282800    1.410061
     13          1           0       -0.171872    0.720024    1.416097
     14          1           0       -0.099005   -2.441276   -0.652827
     15          1           0        0.159164   -1.835166    0.976266
     16          1           0       -0.518305   -0.151061   -1.485077
     17          1           0        1.872973   -1.191497   -1.484890
     18          1           0        2.337903   -2.216365   -0.130654
     19          1           0        1.499824    1.368419   -1.058410
     20          1           0        1.746086    2.008263    0.567561
     21          1           0        3.889533    0.372634   -1.087595
     22          1           0        4.150306    1.044468    0.530585
     23          1           0        4.394175   -0.686720    0.239090
     24          1           0       -0.783194    2.266026   -0.849466
     25          1           0       -2.274993   -1.705516   -0.476720
     26          1           0       -3.029466    1.249621   -0.695241
     27          1           0       -2.830654    0.133907   -2.063218
     28          1           0       -4.117805   -0.137896   -0.880209
     29          1           0       -2.501123    0.431679    1.706987
     30          1           0       -1.878894   -1.209945    1.969422
     31          1           0       -3.555887   -0.967709    1.469679
 ---------------------------------------------------------------------
 Rotational constants (GHZ):      1.9330237      0.6656451      0.5721561
 Standard basis: 6-31+G(d,p) (6D, 7F)
 There are   309 symmetry adapted basis functions of A   symmetry.
 Integral buffers will be    131072 words long.
 Raffenetti 2 integral format.
 Two-electron integral symmetry is turned on.
   309 basis functions,   492 primitive gaussians,   309 cartesian basis functions
    44 alpha electrons       44 beta electrons
       nuclear repulsion energy       688.7450168308 Hartrees.
 NAtoms=   31 NActive=   31 NUniq=   31 SFac= 1.00D+00 NAtFMM=   60 NAOKFM=F Big=F
 ------------------------------------------------------------------------------
 Polarizable Continuum Model (PCM)
 =================================
 Model                : PCM.
 Atomic radii         : UFF (Universal Force Field).
 Polarization charges : Total charges.
 Charge compensation  : None.
 Solution method      : Matrix inversion.
 Cavity type          : Scaled VdW (van der Waals Surface) (Alpha=1.100).
 Cavity algorithm     : GePol (No added spheres)
                        Default sphere list used, NSphG=   31.
                        Lebedev-Laikov grids with approx.  5.0 points / Ang**2.
                        Smoothing algorithm: Karplus/York (Gamma=1.0000).
                        Polarization charges: spherical gaussians, with
                                              point-specific exponents (IZeta= 3).
                        Self-potential: point-specific (ISelfS= 7).
                        Self-field    : sphere-specific E.n sum rule (ISelfD= 2).
 Solvent              : Benzene, Eps=   2.270600 Eps(inf)=   2.253301
 ------------------------------------------------------------------------------
 One-electron integrals computed using PRISM.
 NBasis=   309 RedAO= T  NBF=   309
 NBsUse=   309 1.00D-06 NBFU=   309
 Harris functional with IExCor=  908 diagonalized for initial guess.
 ExpMin= 4.38D-02 ExpMax= 5.48D+03 ExpMxC= 8.25D+02 IAcc=2 IRadAn=         4 AccDes= 0.00D+00
 HarFok:  IExCor=  908 AccDes= 0.00D+00 IRadAn=         4 IDoV= 1
 ScaDFX=  1.000000  1.000000  1.000000  1.000000
 FoFCou: FMM=F IPFlag=           0 FMFlag=      100000 FMFlg1=           0
         NFxFlg=           0 DoJE=T BraDBF=F KetDBF=T FulRan=T
         Omega=  0.000000  0.000000  1.000000  0.000000  0.000000 ICntrl=     500 IOpCl=  0
         NMat0=    1 NMatS0=    1 NMatT0=    0 NMatD0=    1 NMtDS0=    0 NMtDT0=    0
         I1Cent=           4 NGrid=           0.
 Petite list used in FoFCou.
 Initial guess orbital symmetries:
       Occupied  (A) (A) (A) (A) (A) (A) (A) (A) (A) (A) (A) (A)
                 (A) (A) (A) (A) (A) (A) (A) (A) (A) (A) (A) (A)
                 (A) (A) (A) (A) (A) (A) (A) (A) (A) (A) (A) (A)
                 (A) (A) (A) (A) (A) (A) (A) (A)
       Virtual   (A) (A) (A) (A) (A) (A) (A) (A) (A) (A) (A) (A)
                 (A) (A) (A) (A) (A) (A) (A) (A) (A) (A) (A) (A)
                 (A) (A) (A) (A) (A) (A) (A) (A) (A) (A) (A) (A)
                 (A) (A) (A) (A) (A) (A) (A) (A) (A) (A) (A) (A)
                 (A) (A) (A) (A) (A) (A) (A) (A) (A) (A) (A) (A)
                 (A) (A) (A) (A) (A) (A) (A) (A) (A) (A) (A) (A)
                 (A) (A) (A) (A) (A) (A) (A) (A) (A) (A) (A) (A)
                 (A) (A) (A) (A) (A) (A) (A) (A) (A) (A) (A) (A)
                 (A) (A) (A) (A) (A) (A) (A) (A) (A) (A) (A) (A)
                 (A) (A) (A) (A) (A) (A) (A) (A) (A) (A) (A) (A)
                 (A) (A) (A) (A) (A) (A) (A) (A) (A) (A) (A) (A)
                 (A) (A) (A) (A) (A) (A) (A) (A) (A) (A) (A) (A)
                 (A) (A) (A) (A) (A) (A) (A) (A) (A) (A) (A) (A)
                 (A) (A) (A) (A) (A) (A) (A) (A) (A) (A) (A) (A)
                 (A) (A) (A) (A) (A) (A) (A) (A) (A) (A) (A) (A)
                 (A) (A) (A) (A) (A) (A) (A) (A) (A) (A) (A) (A)
                 (A) (A) (A) (A) (A) (A) (A) (A) (A) (A) (A) (A)
                 (A) (A) (A) (A) (A) (A) (A) (A) (A) (A) (A) (A)
                 (A) (A) (A) (A) (A) (A) (A) (A) (A) (A) (A) (A)
                 (A) (A) (A) (A) (A) (A) (A) (A) (A) (A) (A) (A)
                 (A) (A) (A) (A) (A) (A) (A) (A) (A) (A) (A) (A)
                 (A) (A) (A) (A) (A) (A) (A) (A) (A) (A) (A) (A)
                 (A)
 The electronic state of the initial guess is 1-A.
 Requested convergence on RMS density matrix=1.00D-08 within 128 cycles.
 Requested convergence on MAX density matrix=1.00D-06.
 Requested convergence on             energy=1.00D-06.
 No special actions if energy rises.
 Error on total polarization charges =  0.00947
 SCF Done:  E(RmPW1PW91) =  -468.284008678     A.U. after   12 cycles
             Convg  =    0.9143D-08             -V/T =  2.0099
 Range of M.O.s used for correlation:     1   309
 NBasis=   309 NAE=    44 NBE=    44 NFC=     0 NFV=     0
 NROrb=    309 NOA=    44 NOB=    44 NVA=   265 NVB=   265

 **** Warning!!: The largest alpha MO coefficient is  0.88097960D+02

 NEqPCM:  Using equilibrium solvation (IEInf=0, Eps=   2.2706, EpsInf=   2.2533)
          Differentiating once with respect to magnetic field using GIAOs.
          Electric field/nuclear overlap derivatives assumed to be zero.
 FoFCou: FMM=F IPFlag=           0 FMFlag=    10101102 FMFlg1=           0
         NFxFlg=    40000000 DoJE=F BraDBF=F KetDBF=T FulRan=T
         Omega=  0.000000  0.000000  1.000000  0.000000  0.000000 ICntrl=    6100 IOpCl=  0
         NMat0=    1 NMatS0=    1 NMatT0=    0 NMatD0=    1 NMtDS0=    0 NMtDT0=    0
         I1Cent=           7 NGrid=        1921.
 Symmetry not used in FoFCou.
          There are     3 degrees of freedom in the 1st order CPHF.  IDoFFX=0.
      3 vectors produced by pass  0 Test12= 3.89D-13 3.33D-08 XBig12= 3.46D+01 1.00D+00.
 AX will form     3 AO Fock derivatives at one time.
      3 vectors produced by pass  1 Test12= 3.89D-13 3.33D-08 XBig12= 8.03D-02 4.10D-02.
      3 vectors produced by pass  2 Test12= 3.89D-13 3.33D-08 XBig12= 1.83D-04 3.53D-03.
      3 vectors produced by pass  3 Test12= 3.89D-13 3.33D-08 XBig12= 4.77D-07 1.11D-04.
      3 vectors produced by pass  4 Test12= 3.89D-13 3.33D-08 XBig12= 9.68D-10 5.25D-06.
      3 vectors produced by pass  5 Test12= 3.89D-13 3.33D-08 XBig12= 2.77D-12 2.96D-07.
 Inverted reduced A of dimension    18 with in-core refinement.
 Calculating GIAO nuclear magnetic shielding tensors.
 SCF GIAO Magnetic shielding tensor (ppm):
      1  C    Isotropic =   161.6641   Anisotropy =    10.0101
   XX=   164.6615   YX=     2.4515   ZX=    -0.2486
   XY=     6.1945   YY=   163.1486   ZY=     1.4219
   XZ=    -1.0581   YZ=     2.2694   ZZ=   157.1822
   Eigenvalues:   156.1461   160.5087   168.3375
      2  C    Isotropic =   122.2097   Anisotropy =    55.8276
   XX=   124.4147   YX=   -16.8608   ZX=    11.0298
   XY=   -17.9258   YY=   144.9653   ZY=    -8.8584
   XZ=    14.9994   YZ=   -14.7551   ZZ=    97.2490
   Eigenvalues:    91.5481   115.6529   159.4281
      3  C    Isotropic =   162.3138   Anisotropy =    23.1756
   XX=   177.3939   YX=     1.4479   ZX=     0.0549
   XY=    -4.7161   YY=   167.4559   ZY=    -0.1392
   XZ=     4.1118   YZ=     1.2988   ZZ=   142.0918
   Eigenvalues:   141.9513   167.2260   177.7642
      4  C    Isotropic =   143.6694   Anisotropy =    14.4024
   XX=   146.1077   YX=     5.8636   ZX=    -3.0761
   XY=     2.2207   YY=   136.9928   ZY=    -3.3760
   XZ=    -4.2541   YZ=    -6.4627   ZZ=   147.9075
   Eigenvalues:   134.5016   143.2355   153.2710
      5  C    Isotropic =   160.1142   Anisotropy =    20.7134
   XX=   163.0906   YX=     8.4120   ZX=    -1.2955
   XY=    11.9878   YY=   162.3833   ZY=     5.4767
   XZ=     4.9272   YZ=     3.1519   ZZ=   154.8686
   Eigenvalues:   151.2871   155.1324   173.9231
      6  C    Isotropic =   148.8778   Anisotropy =    38.4635
   XX=   169.7082   YX=   -13.5924   ZX=    -2.2417
   XY=   -10.4034   YY=   144.5912   ZY=    -9.5309
   XZ=    -2.4632   YZ=    -3.6664   ZZ=   132.3339
   Eigenvalues:   128.1274   143.9858   174.5201
      7  C    Isotropic =   173.1335   Anisotropy =    37.9863
   XX=   196.9032   YX=     5.1925   ZX=    -2.2792
   XY=     6.0619   YY=   163.7404   ZY=     0.6729
   XZ=    -7.9824   YZ=     0.3276   ZZ=   158.7569
   Eigenvalues:   157.7859   163.1570   198.4577
      8  O    Isotropic =   264.7257   Anisotropy =    44.1518
   XX=   249.9341   YX=    -3.5482   ZX=    -3.0126
   XY=   -13.9904   YY=   259.9686   ZY=    -9.3720
   XZ=     8.2748   YZ=   -25.1229   ZZ=   284.2744
   Eigenvalues:   243.4289   256.5881   294.1603
      9  C    Isotropic =   158.5457   Anisotropy =    21.7721
   XX=   172.6777   YX=     2.0150   ZX=     1.6466
   XY=     2.7493   YY=   157.0889   ZY=     0.1120
   XZ=    -3.6999   YZ=     2.0985   ZZ=   145.8705
   Eigenvalues:   145.7034   156.8732   173.0604
     10  C    Isotropic =   170.5979   Anisotropy =    36.7872
   XX=   178.7779   YX=    -9.8994   ZX=    12.4942
   XY=   -12.9090   YY=   159.9084   ZY=   -15.3229
   XZ=     8.0702   YZ=   -11.5000   ZZ=   173.1075
   Eigenvalues:   150.7010   165.9700   195.1227
     11  C    Isotropic =   179.2362   Anisotropy =    23.3737
   XX=   173.4833   YX=     0.0010   ZX=    -5.6117
   XY=    -1.4639   YY=   170.0062   ZY=    -0.4916
   XZ=    -1.1595   YZ=    -2.2238   ZZ=   194.2193
   Eigenvalues:   169.6782   173.2118   194.8187
     12  H    Isotropic =    30.1036   Anisotropy =     6.4877
   XX=    30.2496   YX=     0.2265   ZX=     1.4998
   XY=    -0.2026   YY=    26.2589   ZY=    -1.5096
   XZ=     1.0919   YZ=    -1.2078   ZZ=    33.8022
   Eigenvalues:    26.0080    29.8740    34.4287
     13  H    Isotropic =    28.0581   Anisotropy =     2.1111
   XX=    29.1351   YX=    -0.2134   ZX=     0.1491
   XY=    -0.2771   YY=    26.6580   ZY=    -0.6152
   XZ=    -1.2987   YZ=     0.7028   ZZ=    28.3811
   Eigenvalues:    26.6339    28.0749    29.4655
     14  H    Isotropic =    30.2072   Anisotropy =     8.6953
   XX=    30.6672   YX=     1.3614   ZX=     0.9084
   XY=     1.6446   YY=    34.0411   ZY=     4.0183
   XZ=     0.0672   YZ=     3.5729   ZZ=    25.9134
   Eigenvalues:    24.4149    30.2026    36.0041
     15  H    Isotropic =    30.2000   Anisotropy =     6.0161
   XX=    30.9183   YX=    -1.0648   ZX=    -1.6974
   XY=    -0.1908   YY=    29.3804   ZY=    -4.5473
   XZ=    -1.2958   YZ=    -3.8238   ZZ=    30.3014
   Eigenvalues:    25.2473    31.1420    34.2108
     16  H    Isotropic =    30.6557   Anisotropy =     3.4037
   XX=    32.4879   YX=    -0.7408   ZX=     0.1314
   XY=    -0.2906   YY=    27.0898   ZY=    -0.4230
   XZ=     0.5956   YZ=    -0.9260   ZZ=    32.3895
   Eigenvalues:    26.9656    32.0767    32.9249
     17  H    Isotropic =    30.6531   Anisotropy =     6.8187
   XX=    30.8320   YX=     0.4463   ZX=    -2.5177
   XY=    -0.1579   YY=    27.6438   ZY=     2.6702
   XZ=    -1.6658   YZ=     2.1101   ZZ=    33.4833
   Eigenvalues:    26.6026    30.1578    35.1988
     18  H    Isotropic =    30.0338   Anisotropy =     9.1112
   XX=    31.4865   YX=    -3.0882   ZX=     0.5640
   XY=    -3.2948   YY=    33.8378   ZY=    -0.4995
   XZ=     0.2328   YZ=    -0.6778   ZZ=    24.7770
   Eigenvalues:    24.7324    29.2610    36.1079
     19  H    Isotropic =    30.9403   Anisotropy =     4.5283
   XX=    31.6480   YX=     0.5426   ZX=    -1.1707
   XY=     0.1485   YY=    30.6079   ZY=    -3.5261
   XZ=    -0.6787   YZ=    -2.5151   ZZ=    30.5651
   Eigenvalues:    27.5232    31.3386    33.9591
     20  H    Isotropic =    29.6320   Anisotropy =     6.6770
   XX=    30.2872   YX=     1.3389   ZX=     1.1155
   XY=     1.0065   YY=    32.2088   ZY=     3.2987
   XZ=     0.9234   YZ=     2.7663   ZZ=    26.4000
   Eigenvalues:    25.0595    29.7531    34.0833
     21  H    Isotropic =    30.9923   Anisotropy =     8.3338
   XX=    32.0832   YX=     1.2244   ZX=    -3.9127
   XY=     1.0674   YY=    27.6324   ZY=    -1.5877
   XZ=    -2.9326   YZ=    -1.4381   ZZ=    33.2613
   Eigenvalues:    27.2248    29.2040    36.5482
     22  H    Isotropic =    30.5847   Anisotropy =    10.5020
   XX=    33.2405   YX=     4.7393   ZX=     2.5738
   XY=     3.5065   YY=    30.8542   ZY=     3.2154
   XZ=     1.8754   YZ=     2.5199   ZZ=    27.6594
   Eigenvalues:    25.9669    28.2012    37.5861
     23  H    Isotropic =    30.5543   Anisotropy =    10.6520
   XX=    35.4321   YX=    -4.4607   ZX=     1.6155
   XY=    -3.1515   YY=    29.9466   ZY=    -1.4673
   XZ=     1.1373   YZ=    -0.9082   ZZ=    26.2841
   Eigenvalues:    25.9227    28.0845    37.6556
     24  H    Isotropic =    31.6840   Anisotropy =    13.4063
   XX=    26.8924   YX=    -2.2861   ZX=     0.8951
   XY=    -2.1535   YY=    31.2050   ZY=    -6.0279
   XZ=     0.9751   YZ=    -5.0954   ZZ=    36.9547
   Eigenvalues:    25.6959    28.7347    40.6215
     25  H    Isotropic =    30.1245   Anisotropy =     6.7415
   XX=    29.8267   YX=     1.2725   ZX=     1.1319
   XY=     0.9329   YY=    33.3922   ZY=     2.5884
   XZ=     0.9344   YZ=     2.2447   ZZ=    27.1547
   Eigenvalues:    26.2139    29.5408    34.6188
     26  H    Isotropic =    29.9074   Anisotropy =     5.6310
   XX=    30.4800   YX=    -1.0879   ZX=     1.9158
   XY=    -0.6758   YY=    33.3529   ZY=     0.3218
   XZ=     2.5614   YZ=    -0.3415   ZZ=    25.8894
   Eigenvalues:    24.9659    31.0949    33.6614
     27  H    Isotropic =    30.6370   Anisotropy =     9.1336
   XX=    29.3174   YX=    -0.7767   ZX=     2.7655
   XY=    -0.2188   YY=    26.5365   ZY=    -1.4470
   XZ=     1.3326   YZ=    -0.3154   ZZ=    36.0571
   Eigenvalues:    26.4169    28.7681    36.7261
     28  H    Isotropic =    30.6233   Anisotropy =    11.0701
   XX=    37.4988   YX=     1.5305   ZX=     1.7488
   XY=     0.3736   YY=    26.6081   ZY=    -0.6712
   XZ=     2.5370   YZ=    -0.8039   ZZ=    27.7629
   Eigenvalues:    25.9425    27.9239    38.0033
     29  H    Isotropic =    30.4863   Anisotropy =     7.1265
   XX=    28.6421   YX=     0.3110   ZX=    -2.3544
   XY=     0.5494   YY=    31.7940   ZY=     3.1294
   XZ=    -2.4750   YZ=     3.9308   ZZ=    31.0226
   Eigenvalues:    26.0498    30.1718    35.2372
     30  H    Isotropic =    30.5543   Anisotropy =     8.6065
   XX=    30.0576   YX=    -1.8256   ZX=    -0.2387
   XY=    -1.6982   YY=    28.0852   ZY=    -4.3119
   XZ=     0.9572   YZ=    -4.6954   ZZ=    33.5202
   Eigenvalues:    25.1565    30.2145    36.2920
     31  H    Isotropic =    30.7640   Anisotropy =    10.8905
   XX=    35.0306   YX=     3.3087   ZX=    -3.1033
   XY=     3.1650   YY=    27.4690   ZY=    -1.7738
   XZ=    -3.8751   YZ=    -1.5230   ZZ=    29.7923
   Eigenvalues:    26.2186    28.0490    38.0243
 End of Minotr Frequency-dependent properties file   721 does not exist.
 End of Minotr Frequency-dependent properties file   722 does not exist.

 **********************************************************************

            Population analysis using the SCF density.

 **********************************************************************

 Orbital symmetries:
       Occupied  (A) (A) (A) (A) (A) (A) (A) (A) (A) (A) (A) (A)
                 (A) (A) (A) (A) (A) (A) (A) (A) (A) (A) (A) (A)
                 (A) (A) (A) (A) (A) (A) (A) (A) (A) (A) (A) (A)
                 (A) (A) (A) (A) (A) (A) (A) (A)
       Virtual   (A) (A) (A) (A) (A) (A) (A) (A) (A) (A) (A) (A)
                 (A) (A) (A) (A) (A) (A) (A) (A) (A) (A) (A) (A)
                 (A) (A) (A) (A) (A) (A) (A) (A) (A) (A) (A) (A)
                 (A) (A) (A) (A) (A) (A) (A) (A) (A) (A) (A) (A)
                 (A) (A) (A) (A) (A) (A) (A) (A) (A) (A) (A) (A)
                 (A) (A) (A) (A) (A) (A) (A) (A) (A) (A) (A) (A)
                 (A) (A) (A) (A) (A) (A) (A) (A) (A) (A) (A) (A)
                 (A) (A) (A) (A) (A) (A) (A) (A) (A) (A) (A) (A)
                 (A) (A) (A) (A) (A) (A) (A) (A) (A) (A) (A) (A)
                 (A) (A) (A) (A) (A) (A) (A) (A) (A) (A) (A) (A)
                 (A) (A) (A) (A) (A) (A) (A) (A) (A) (A) (A) (A)
                 (A) (A) (A) (A) (A) (A) (A) (A) (A) (A) (A) (A)
                 (A) (A) (A) (A) (A) (A) (A) (A) (A) (A) (A) (A)
                 (A) (A) (A) (A) (A) (A) (A) (A) (A) (A) (A) (A)
                 (A) (A) (A) (A) (A) (A) (A) (A) (A) (A) (A) (A)
                 (A) (A) (A) (A) (A) (A) (A) (A) (A) (A) (A) (A)
                 (A) (A) (A) (A) (A) (A) (A) (A) (A) (A) (A) (A)
                 (A) (A) (A) (A) (A) (A) (A) (A) (A) (A) (A) (A)
                 (A) (A) (A) (A) (A) (A) (A) (A) (A) (A) (A) (A)
                 (A) (A) (A) (A) (A) (A) (A) (A) (A) (A) (A) (A)
                 (A) (A) (A) (A) (A) (A) (A) (A) (A) (A) (A) (A)
                 (A) (A) (A) (A) (A) (A) (A) (A) (A) (A) (A) (A)
                 (A)
 The electronic state is 1-A.
 Alpha  occ. eigenvalues --  -19.24441 -10.29349 -10.25249 -10.24990 -10.24925
 Alpha  occ. eigenvalues --  -10.24331 -10.24163 -10.24048 -10.23513 -10.22916
 Alpha  occ. eigenvalues --  -10.22702  -1.04965  -0.86196  -0.82164  -0.76799
 Alpha  occ. eigenvalues --   -0.75382  -0.69846  -0.69557  -0.63527  -0.61936
 Alpha  occ. eigenvalues --   -0.57831  -0.57478  -0.50169  -0.48005  -0.47777
 Alpha  occ. eigenvalues --   -0.46227  -0.45504  -0.42878  -0.42839  -0.42047
 Alpha  occ. eigenvalues --   -0.40944  -0.39377  -0.38889  -0.38064  -0.37675
 Alpha  occ. eigenvalues --   -0.36048  -0.35501  -0.34804  -0.33470  -0.33161
 Alpha  occ. eigenvalues --   -0.32277  -0.31701  -0.30678  -0.27296
 Alpha virt. eigenvalues --    0.01067   0.01623   0.01862   0.02368   0.03816
 Alpha virt. eigenvalues --    0.04394   0.04586   0.05186   0.05661   0.06261
 Alpha virt. eigenvalues --    0.06644   0.07445   0.08136   0.08663   0.09293
 Alpha virt. eigenvalues --    0.09595   0.09838   0.10217   0.10798   0.11468
 Alpha virt. eigenvalues --    0.11985   0.12934   0.13862   0.14012   0.14376
 Alpha virt. eigenvalues --    0.15359   0.15942   0.16262   0.16509   0.17265
 Alpha virt. eigenvalues --    0.18064   0.18519   0.19024   0.19717   0.20121
 Alpha virt. eigenvalues --    0.20498   0.20814   0.21129   0.21714   0.22267
 Alpha virt. eigenvalues --    0.23058   0.23566   0.23621   0.24109   0.24446
 Alpha virt. eigenvalues --    0.25046   0.26122   0.26499   0.27117   0.27551
 Alpha virt. eigenvalues --    0.27953   0.28235   0.28957   0.29415   0.29867
 Alpha virt. eigenvalues --    0.30727   0.31480   0.32003   0.33012   0.34084
 Alpha virt. eigenvalues --    0.34483   0.34906   0.36101   0.36758   0.37181
 Alpha virt. eigenvalues --    0.37342   0.38595   0.39184   0.40389   0.41167
 Alpha virt. eigenvalues --    0.42565   0.44380   0.46178   0.49421   0.52429
 Alpha virt. eigenvalues --    0.61916   0.62842   0.65060   0.66020   0.67477
 Alpha virt. eigenvalues --    0.67901   0.68420   0.70205   0.71160   0.71978
 Alpha virt. eigenvalues --    0.73430   0.74848   0.75132   0.76827   0.77345
 Alpha virt. eigenvalues --    0.78398   0.80105   0.80322   0.82215   0.84537
 Alpha virt. eigenvalues --    0.87190   0.87979   0.88517   0.89413   0.92391
 Alpha virt. eigenvalues --    0.93804   0.98081   0.98746   0.99310   0.99560
 Alpha virt. eigenvalues --    1.00777   1.01814   1.03058   1.03965   1.05132
 Alpha virt. eigenvalues --    1.05312   1.07146   1.08517   1.09646   1.11015
 Alpha virt. eigenvalues --    1.12941   1.13556   1.14649   1.16252   1.16804
 Alpha virt. eigenvalues --    1.17594   1.18406   1.19115   1.20450   1.20476
 Alpha virt. eigenvalues --    1.24192   1.25893   1.27871   1.30004   1.34954
 Alpha virt. eigenvalues --    1.37311   1.38949   1.40542   1.42561   1.44744
 Alpha virt. eigenvalues --    1.46775   1.48195   1.52312   1.53875   1.56313
 Alpha virt. eigenvalues --    1.58199   1.59078   1.62697   1.67295   1.67366
 Alpha virt. eigenvalues --    1.69598   1.74134   1.76673   1.78606   1.79336
 Alpha virt. eigenvalues --    1.82992   1.84492   1.85016   1.86364   1.87316
 Alpha virt. eigenvalues --    1.89436   1.90228   1.91883   1.93418   1.94954
 Alpha virt. eigenvalues --    1.96281   1.97202   1.98319   1.99396   2.02502
 Alpha virt. eigenvalues --    2.03505   2.05746   2.05910   2.06951   2.09132
 Alpha virt. eigenvalues --    2.10623   2.11700   2.12963   2.13200   2.14419
 Alpha virt. eigenvalues --    2.16500   2.16906   2.17890   2.18361   2.19112
 Alpha virt. eigenvalues --    2.20200   2.21354   2.22485   2.25515   2.29959
 Alpha virt. eigenvalues --    2.32026   2.33685   2.35582   2.36774   2.37684
 Alpha virt. eigenvalues --    2.38703   2.38961   2.40541   2.44463   2.44543
 Alpha virt. eigenvalues --    2.49291   2.50266   2.52390   2.54945   2.56299
 Alpha virt. eigenvalues --    2.58177   2.60585   2.62782   2.63370   2.65961
 Alpha virt. eigenvalues --    2.67652   2.68895   2.71687   2.72066   2.72753
 Alpha virt. eigenvalues --    2.73941   2.75527   2.76559   2.77952   2.78347
 Alpha virt. eigenvalues --    2.80394   2.82785   2.83528   2.84327   2.86314
 Alpha virt. eigenvalues --    2.87011   2.89420   2.90489   2.91457   2.91922
 Alpha virt. eigenvalues --    2.93710   2.95316   2.96939   2.97181   3.00246
 Alpha virt. eigenvalues --    3.00505   3.03946   3.07936   3.16597   3.29249
 Alpha virt. eigenvalues --    3.30246   3.31203   3.33653   3.37524   3.37767
 Alpha virt. eigenvalues --    3.40929   3.41897   3.44059   3.48576   3.50298
 Alpha virt. eigenvalues --    3.51171   3.53223   3.53806   3.55105   3.57287
 Alpha virt. eigenvalues --    3.58713   3.59191   3.61526   3.65900   4.35368
 Alpha virt. eigenvalues --    4.44654   4.48286   4.50678   4.54910   4.60442
 Alpha virt. eigenvalues --    4.64795   4.76628   4.83859   4.86304   4.87637
          Condensed to atoms (all electrons):
              1          2          3          4          5          6
     1  C    6.479504  -0.062108  -0.124404  -0.007003   0.057801  -0.050630
     2  C   -0.062108   6.641150  -0.230642  -0.159565  -0.103705  -0.580111
     3  C   -0.124404  -0.230642   6.227318  -0.293220   0.082283   0.066880
     4  C   -0.007003  -0.159565  -0.293220   7.331913  -0.153391  -0.195509
     5  C    0.057801  -0.103705   0.082283  -0.153391   5.860457  -0.145216
     6  C   -0.050630  -0.580111   0.066880  -0.195509  -0.145216   6.607111
     7  C   -0.317801  -0.051249  -0.075119   0.001327   0.084358   0.067027
     8  O   -0.002875   0.218843   0.059136  -0.125493   0.005186  -0.030684
     9  C    0.012520  -0.120848   0.286756  -1.299417  -0.009210   0.338927
    10  C   -0.007288   0.026415  -0.063779   0.411972  -0.060364  -0.079927
    11  C    0.002274   0.024491  -0.027060   0.093801   0.037527  -0.100151
    12  H    0.269123  -0.002110  -0.036323   0.022256  -0.010227  -0.015721
    13  H   -0.000293   0.466047  -0.038093   0.034296   0.005673  -0.086823
    14  H    0.035229   0.018849   0.324097  -0.049476   0.016759  -0.006542
    15  H   -0.004167  -0.004962   0.395808  -0.014162  -0.070146  -0.005545
    16  H   -0.003890   0.028914  -0.050672   0.396864  -0.025134  -0.039654
    17  H   -0.089188   0.016231  -0.094564   0.037745   0.442837  -0.012708
    18  H   -0.040884   0.003264  -0.033665   0.041693   0.342681   0.036646
    19  H   -0.102789  -0.032122  -0.007637   0.017094  -0.012064   0.434515
    20  H   -0.019565  -0.086632  -0.004116   0.034335   0.035311   0.382413
    21  H   -0.126429   0.002231  -0.001217   0.002134   0.003507   0.003060
    22  H   -0.108232   0.001419  -0.011429   0.000640   0.032059  -0.003863
    23  H   -0.105960  -0.007103  -0.001739   0.001206   0.002646   0.027547
    24  H    0.003640   0.151572  -0.014914   0.002223   0.002947  -0.112952
    25  H    0.002751  -0.003099  -0.014665  -0.029452   0.008616  -0.014482
    26  H    0.001098  -0.017792  -0.001938   0.028115  -0.000746  -0.004199
    27  H   -0.000591   0.018157  -0.001654   0.000150  -0.003876  -0.000699
    28  H   -0.000168   0.002157  -0.005491   0.036851   0.000446   0.000442
    29  H    0.000237  -0.000087  -0.003052   0.014017   0.001793  -0.009228
    30  H   -0.001753  -0.016371   0.010594  -0.019026   0.002472   0.011820
    31  H   -0.000063  -0.007460   0.004443   0.046721   0.001603   0.001009
              7          8          9         10         11         12
     1  C   -0.317801  -0.002875   0.012520  -0.007288   0.002274   0.269123
     2  C   -0.051249   0.218843  -0.120848   0.026415   0.024491  -0.002110
     3  C   -0.075119   0.059136   0.286756  -0.063779  -0.027060  -0.036323
     4  C    0.001327  -0.125493  -1.299417   0.411972   0.093801   0.022256
     5  C    0.084358   0.005186  -0.009210  -0.060364   0.037527  -0.010227
     6  C    0.067027  -0.030684   0.338927  -0.079927  -0.100151  -0.015721
     7  C    5.618291  -0.004721  -0.012687  -0.001108   0.001824   0.042755
     8  O   -0.004721   8.245652   0.033111  -0.013414  -0.045684  -0.000589
     9  C   -0.012687   0.033111   7.898866  -0.686943  -0.272460  -0.002638
    10  C   -0.001108  -0.013414  -0.686943   5.773233   0.006348   0.000586
    11  C    0.001824  -0.045684  -0.272460   0.006348   5.540960   0.001961
    12  H    0.042755  -0.000589  -0.002638   0.000586   0.001961   0.567342
    13  H    0.008942  -0.067171  -0.108620   0.017015   0.031448   0.002408
    14  H    0.001275  -0.000280  -0.012174  -0.009122   0.007342  -0.000026
    15  H    0.004912  -0.000683  -0.000395   0.005566  -0.000467   0.002812
    16  H    0.005836  -0.014311  -0.065588   0.017222   0.011674   0.000068
    17  H    0.009240  -0.000490  -0.005214   0.001682   0.000400   0.005079
    18  H   -0.016512   0.000061  -0.004226   0.000516  -0.001109  -0.004314
    19  H    0.020604  -0.011231  -0.010904   0.003090   0.002384   0.004953
    20  H   -0.011600   0.001381   0.002673  -0.001401   0.000177  -0.004457
    21  H    0.466068  -0.000080  -0.000184   0.000051   0.000032   0.004781
    22  H    0.449542  -0.000036  -0.000315  -0.000032   0.000030  -0.003669
    23  H    0.442660   0.000028  -0.000286   0.000007  -0.000001  -0.003680
    24  H    0.000333   0.237448  -0.075591   0.027180   0.010880   0.000009
    25  H   -0.000046   0.000521   0.293447  -0.014343   0.036757   0.000001
    26  H   -0.000007   0.000569  -0.139341   0.477850   0.009834   0.000000
    27  H   -0.000083  -0.002138  -0.103341   0.448554   0.001544   0.000000
    28  H    0.000012   0.000936  -0.126852   0.446753   0.001203   0.000000
    29  H   -0.000079   0.003242  -0.132308  -0.001206   0.478518   0.000002
    30  H   -0.000115  -0.000058  -0.012941  -0.006785   0.390202   0.000001
    31  H    0.000041   0.000301  -0.114990  -0.002715   0.429323   0.000000
             13         14         15         16         17         18
     1  C   -0.000293   0.035229  -0.004167  -0.003890  -0.089188  -0.040884
     2  C    0.466047   0.018849  -0.004962   0.028914   0.016231   0.003264
     3  C   -0.038093   0.324097   0.395808  -0.050672  -0.094564  -0.033665
     4  C    0.034296  -0.049476  -0.014162   0.396864   0.037745   0.041693
     5  C    0.005673   0.016759  -0.070146  -0.025134   0.442837   0.342681
     6  C   -0.086823  -0.006542  -0.005545  -0.039654  -0.012708   0.036646
     7  C    0.008942   0.001275   0.004912   0.005836   0.009240  -0.016512
     8  O   -0.067171  -0.000280  -0.000683  -0.014311  -0.000490   0.000061
     9  C   -0.108620  -0.012174  -0.000395  -0.065588  -0.005214  -0.004226
    10  C    0.017015  -0.009122   0.005566   0.017222   0.001682   0.000516
    11  C    0.031448   0.007342  -0.000467   0.011674   0.000400  -0.001109
    12  H    0.002408  -0.000026   0.002812   0.000068   0.005079  -0.004314
    13  H    0.561514  -0.000098   0.002744   0.004881   0.000054  -0.000020
    14  H   -0.000098   0.551409  -0.029697  -0.004456  -0.004429  -0.002543
    15  H    0.002744  -0.029697   0.548588   0.004958   0.004631  -0.004140
    16  H    0.004881  -0.004456   0.004958   0.576349   0.002624   0.000004
    17  H    0.000054  -0.004429   0.004631   0.002624   0.547940  -0.029543
    18  H   -0.000020  -0.002543  -0.004140   0.000004  -0.029543   0.551485
    19  H    0.004567  -0.000044   0.000082   0.002761   0.003017  -0.000023
    20  H   -0.005839   0.000010  -0.000035  -0.000077  -0.000057  -0.000129
    21  H    0.000000  -0.000001   0.000001  -0.000003   0.003287  -0.000142
    22  H    0.000002   0.000002   0.000002   0.000001  -0.000009   0.000007
    23  H    0.000004  -0.000002   0.000003   0.000001  -0.000210   0.002692
    24  H    0.008007  -0.000007   0.000012   0.004396   0.000010   0.000000
    25  H    0.000069   0.004183  -0.000472  -0.001525   0.000002  -0.000014
    26  H    0.000049  -0.000001  -0.000003  -0.000244   0.000000   0.000000
    27  H   -0.000008   0.000031  -0.000002   0.003300   0.000001   0.000000
    28  H    0.000006  -0.000010   0.000002   0.000194   0.000000   0.000000
    29  H   -0.001324   0.000001   0.000069  -0.000040   0.000000   0.000000
    30  H   -0.000378   0.000098   0.001031  -0.000037  -0.000001   0.000005
    31  H    0.000112  -0.000012  -0.000056  -0.000086   0.000000   0.000000
             19         20         21         22         23         24
     1  C   -0.102789  -0.019565  -0.126429  -0.108232  -0.105960   0.003640
     2  C   -0.032122  -0.086632   0.002231   0.001419  -0.007103   0.151572
     3  C   -0.007637  -0.004116  -0.001217  -0.011429  -0.001739  -0.014914
     4  C    0.017094   0.034335   0.002134   0.000640   0.001206   0.002223
     5  C   -0.012064   0.035311   0.003507   0.032059   0.002646   0.002947
     6  C    0.434515   0.382413   0.003060  -0.003863   0.027547  -0.112952
     7  C    0.020604  -0.011600   0.466068   0.449542   0.442660   0.000333
     8  O   -0.011231   0.001381  -0.000080  -0.000036   0.000028   0.237448
     9  C   -0.010904   0.002673  -0.000184  -0.000315  -0.000286  -0.075591
    10  C    0.003090  -0.001401   0.000051  -0.000032   0.000007   0.027180
    11  C    0.002384   0.000177   0.000032   0.000030  -0.000001   0.010880
    12  H    0.004953  -0.004457   0.004781  -0.003669  -0.003680   0.000009
    13  H    0.004567  -0.005839   0.000000   0.000002   0.000004   0.008007
    14  H   -0.000044   0.000010  -0.000001   0.000002  -0.000002  -0.000007
    15  H    0.000082  -0.000035   0.000001   0.000002   0.000003   0.000012
    16  H    0.002761  -0.000077  -0.000003   0.000001   0.000001   0.004396
    17  H    0.003017  -0.000057   0.003287  -0.000009  -0.000210   0.000010
    18  H   -0.000023  -0.000129  -0.000142   0.000007   0.002692   0.000000
    19  H    0.550796  -0.030914   0.003213  -0.000181  -0.000008   0.004148
    20  H   -0.030914   0.533806  -0.000206   0.002528   0.000001  -0.000977
    21  H    0.003213  -0.000206   0.533838  -0.027974  -0.027963   0.000001
    22  H   -0.000181   0.002528  -0.027974   0.529788  -0.025437   0.000000
    23  H   -0.000008   0.000001  -0.027963  -0.025437   0.531852   0.000000
    24  H    0.004148  -0.000977   0.000001   0.000000   0.000000   0.397803
    25  H    0.000001   0.000002   0.000000   0.000000   0.000000  -0.000023
    26  H    0.000005   0.000003   0.000000   0.000000   0.000000  -0.001206
    27  H    0.000000   0.000000   0.000000   0.000000   0.000000   0.000241
    28  H    0.000000   0.000000   0.000000   0.000000   0.000000   0.000004
    29  H   -0.000002   0.000005   0.000000   0.000000   0.000000  -0.000139
    30  H   -0.000001   0.000001   0.000000   0.000000   0.000000  -0.000008
    31  H    0.000000   0.000000   0.000000   0.000000   0.000000   0.000003
             25         26         27         28         29         30
     1  C    0.002751   0.001098  -0.000591  -0.000168   0.000237  -0.001753
     2  C   -0.003099  -0.017792   0.018157   0.002157  -0.000087  -0.016371
     3  C   -0.014665  -0.001938  -0.001654  -0.005491  -0.003052   0.010594
     4  C   -0.029452   0.028115   0.000150   0.036851   0.014017  -0.019026
     5  C    0.008616  -0.000746  -0.003876   0.000446   0.001793   0.002472
     6  C   -0.014482  -0.004199  -0.000699   0.000442  -0.009228   0.011820
     7  C   -0.000046  -0.000007  -0.000083   0.000012  -0.000079  -0.000115
     8  O    0.000521   0.000569  -0.002138   0.000936   0.003242  -0.000058
     9  C    0.293447  -0.139341  -0.103341  -0.126852  -0.132308  -0.012941
    10  C   -0.014343   0.477850   0.448554   0.446753  -0.001206  -0.006785
    11  C    0.036757   0.009834   0.001544   0.001203   0.478518   0.390202
    12  H    0.000001   0.000000   0.000000   0.000000   0.000002   0.000001
    13  H    0.000069   0.000049  -0.000008   0.000006  -0.001324  -0.000378
    14  H    0.004183  -0.000001   0.000031  -0.000010   0.000001   0.000098
    15  H   -0.000472  -0.000003  -0.000002   0.000002   0.000069   0.001031
    16  H   -0.001525  -0.000244   0.003300   0.000194  -0.000040  -0.000037
    17  H    0.000002   0.000000   0.000001   0.000000   0.000000  -0.000001
    18  H   -0.000014   0.000000   0.000000   0.000000   0.000000   0.000005
    19  H    0.000001   0.000005   0.000000   0.000000  -0.000002  -0.000001
    20  H    0.000002   0.000003   0.000000   0.000000   0.000005   0.000001
    21  H    0.000000   0.000000   0.000000   0.000000   0.000000   0.000000
    22  H    0.000000   0.000000   0.000000   0.000000   0.000000   0.000000
    23  H    0.000000   0.000000   0.000000   0.000000   0.000000   0.000000
    24  H   -0.000023  -0.001206   0.000241   0.000004  -0.000139  -0.000008
    25  H    0.594345   0.005031  -0.003496  -0.004224   0.005020  -0.003412
    26  H    0.005031   0.509069  -0.027372  -0.026476   0.003637   0.000006
    27  H   -0.003496  -0.027372   0.541697  -0.025803   0.000026  -0.000142
    28  H   -0.004224  -0.026476  -0.025803   0.538290  -0.000081   0.000031
    29  H    0.005020   0.003637   0.000026  -0.000081   0.514811  -0.028324
    30  H   -0.003412   0.000006  -0.000142   0.000031  -0.028324   0.540923
    31  H   -0.003953  -0.000079   0.000046   0.002595  -0.025979  -0.026022
             31
     1  C   -0.000063
     2  C   -0.007460
     3  C    0.004443
     4  C    0.046721
     5  C    0.001603
     6  C    0.001009
     7  C    0.000041
     8  O    0.000301
     9  C   -0.114990
    10  C   -0.002715
    11  C    0.429323
    12  H    0.000000
    13  H    0.000112
    14  H   -0.000012
    15  H   -0.000056
    16  H   -0.000086
    17  H    0.000000
    18  H    0.000000
    19  H    0.000000
    20  H    0.000000
    21  H    0.000000
    22  H    0.000000
    23  H    0.000000
    24  H    0.000003
    25  H   -0.003953
    26  H   -0.000079
    27  H    0.000046
    28  H    0.002595
    29  H   -0.025979
    30  H   -0.026022
    31  H    0.532424
 Mulliken atomic charges:
              1
     1  C    0.311902
     2  C   -0.133774
     3  C   -0.321924
     4  C   -0.209636
     5  C   -0.432883
     6  C   -0.482750
     7  C   -0.733920
     8  O   -0.486476
     9  C    0.451172
    10  C   -0.715614
    11  C   -0.674003
    12  H    0.159615
    13  H    0.160827
    14  H    0.159636
    15  H    0.163713
    16  H    0.145669
    17  H    0.161634
    18  H    0.158212
    19  H    0.156691
    20  H    0.173359
    21  H    0.161995
    22  H    0.165159
    23  H    0.163742
    24  H    0.354960
    25  H    0.142459
    26  H    0.184140
    27  H    0.155460
    28  H    0.159181
    29  H    0.180469
    30  H    0.158190
    31  H    0.162795
 Sum of Mulliken atomic charges =   0.00000
 Mulliken charges with hydrogens summed into heavy atoms:
              1
     1  C    0.471518
     2  C    0.027053
     3  C    0.001425
     4  C   -0.063967
     5  C   -0.113037
     6  C   -0.152700
     7  C   -0.243025
     8  O   -0.131516
     9  C    0.593631
    10  C   -0.216834
    11  C   -0.172549
 Sum of Mulliken charges with hydrogens summed into heavy atoms =   0.00000
 Electronic spatial extent (au):  <R**2>=           2213.3002
 Charge=              0.0000 electrons
 Dipole moment (field-independent basis, Debye):
    X=              1.0731    Y=             -1.2643    Z=             -1.0904  Tot=              1.9847
 Quadrupole moment (field-independent basis, Debye-Ang):
   XX=            -73.5504   YY=            -75.1239   ZZ=            -70.2384
   XY=              2.0216   XZ=              1.5977   YZ=             -3.3797
 Traceless Quadrupole moment (field-independent basis, Debye-Ang):
   XX=             -0.5795   YY=             -2.1530   ZZ=              2.7325
   XY=              2.0216   XZ=              1.5977   YZ=             -3.3797
 Octapole moment (field-independent basis, Debye-Ang**2):
  XXX=             -2.5541  YYY=             -1.1549  ZZZ=             -1.7479  XYY=              3.9706
  XXY=             -2.0248  XXZ=              2.1202  XZZ=              0.6970  YZZ=              6.2803
  YYZ=             -8.4029  XYZ=              2.5802
 Hexadecapole moment (field-independent basis, Debye-Ang**3):
 XXXX=          -2161.1544 YYYY=           -635.2451 ZZZZ=           -314.2428 XXXY=              2.3285
 XXXZ=              2.7784 YYYX=             -1.4313 YYYZ=            -21.0271 ZZZX=              2.3406
 ZZZY=             -2.8588 XXYY=           -459.2016 XXZZ=           -416.6964 YYZZ=           -147.5557
 XXYZ=             -1.1271 YYXZ=             12.7633 ZZXY=             -2.9604
 N-N= 6.887450168308D+02 E-N=-2.462758704953D+03  KE= 4.637006504337D+02
 1\1\GINC-COMPUTE-10-6\SP\RmPW1PW91\6-31+G(d,p)\C10H20O1\ASAROTTI.IQUIR
 \19-Sep-2024\0\\# mPW1PW91/6-31+G** nmr scrf=(pcm,solvent=benzene)\\co
 mment\\0,1\C,0,2.294658,-0.091459,0.326816\C,0,-0.075259,0.884852,0.33
 6052\C,0,0.264374,-1.573834,-0.086919\C,0,-0.627292,-0.351712,-0.40433
 2\C,0,1.747117,-1.330567,-0.399872\C,0,1.406656,1.1243,0.013365\C,0,3.
 76503,0.174837,-0.014993\O,0,-0.837411,2.074206,0.100974\C,0,-2.132112
 ,-0.664639,-0.147714\C,0,-3.080455,0.199529,-0.99631\C,0,-2.532224,-0.
 59843,1.335699\H,0,2.22756,-0.2828,1.410061\H,0,-0.171872,0.720024,1.4
 16097\H,0,-0.099005,-2.441276,-0.652827\H,0,0.159164,-1.835166,0.97626
 6\H,0,-0.518305,-0.151061,-1.485077\H,0,1.872973,-1.191497,-1.48489\H,
 0,2.337903,-2.216365,-0.130654\H,0,1.499824,1.368419,-1.05841\H,0,1.74
 6086,2.008263,0.567561\H,0,3.889533,0.372634,-1.087595\H,0,4.150306,1.
 044468,0.530585\H,0,4.394175,-0.68672,0.23909\H,0,-0.783194,2.266026,-
 0.849466\H,0,-2.274993,-1.705516,-0.47672\H,0,-3.029466,1.249621,-0.69
 5241\H,0,-2.830654,0.133907,-2.063218\H,0,-4.117805,-0.137896,-0.88020
 9\H,0,-2.501123,0.431679,1.706987\H,0,-1.878894,-1.209945,1.969422\H,0
 ,-3.555887,-0.967709,1.469679\\Version=AM64L-G09RevC.01\State=1-A\HF=-
 468.2840087\RMSD=9.143e-09\Dipole=0.4221986,-0.4974019,-0.4290123\Quad
 rupole=-0.4308559,-1.6006658,2.0315217,1.5030183,1.1878433,-2.5126978\
 PG=C01 [X(C10H20O1)]\\@


 NO SCIENCE HAS EVER MADE MORE RAPID PROGRESS IN A
 SHORTER TIME THAN CHEMISTRY.
   -- MARTIN HEINRICH KLOPROTH, 1791
 (FIRST PROFESSOR OF CHEMISTRY AT THE UNIVERSITY OF BERLIN)
 Job cpu time:  0 days  0 hours 10 minutes 57.8 seconds.
 File lengths (MBytes):  RWF=    121 Int=      0 D2E=      0 Chk=      7 Scr=      1
 Normal termination of Gaussian 09 at Thu Sep 19 08:00:37 2024.
