 Entering Gaussian System, Link 0=g09
 Input=/home/asarotti.iquir/SCF2/02_Mentol11_OptB_NMR_benzene.gjc
 Output=/home/asarotti.iquir/SCF2/02_Mentol11_OptB_NMR_benzene.log
 Initial command:
 /opt/ohpc/pub/apps/software/Gaussian/09/AMD64.SSE4a-enabled/g09/l1.exe /local/asarotti.iquir/Gau-1837299.inp -scrdir=/local/asarotti.iquir/
 Entering Link 1 = /opt/ohpc/pub/apps/software/Gaussian/09/AMD64.SSE4a-enabled/g09/l1.exe PID=   1837300.
  
 Copyright (c) 1988,1990,1992,1993,1995,1998,2003,2009,2011,
            Gaussian, Inc.  All Rights Reserved.
  
 This is part of the Gaussian(R) 09 program.  It is based on
 the Gaussian(R) 03 system (copyright 2003, Gaussian, Inc.),
 the Gaussian(R) 98 system (copyright 1998, Gaussian, Inc.),
 the Gaussian(R) 94 system (copyright 1995, Gaussian, Inc.),
 the Gaussian 92(TM) system (copyright 1992, Gaussian, Inc.),
 the Gaussian 90(TM) system (copyright 1990, Gaussian, Inc.),
 the Gaussian 88(TM) system (copyright 1988, Gaussian, Inc.),
 the Gaussian 86(TM) system (copyright 1986, Carnegie Mellon
 University), and the Gaussian 82(TM) system (copyright 1983,
 Carnegie Mellon University). Gaussian is a federally registered
 trademark of Gaussian, Inc.
  
 This software contains proprietary and confidential information,
 including trade secrets, belonging to Gaussian, Inc.
  
 This software is provided under written license and may be
 used, copied, transmitted, or stored only in accord with that
 written license.
  
 The following legend is applicable only to US Government
 contracts under FAR:
  
                    RESTRICTED RIGHTS LEGEND
  
 Use, reproduction and disclosure by the US Government is
 subject to restrictions as set forth in subparagraphs (a)
 and (c) of the Commercial Computer Software - Restricted
 Rights clause in FAR 52.227-19.
  
 Gaussian, Inc.
 340 Quinnipiac St., Bldg. 40, Wallingford CT 06492
  
  
 ---------------------------------------------------------------
 Warning -- This program may not be used in any manner that
 competes with the business of Gaussian, Inc. or will provide
 assistance to any competitor of Gaussian, Inc.  The licensee
 of this program is prohibited from giving any competitor of
 Gaussian, Inc. access to this program.  By using this program,
 the user acknowledges that Gaussian, Inc. is engaged in the
 business of creating and licensing software in the field of
 computational chemistry and represents and warrants to the
 licensee that it is not a competitor of Gaussian, Inc. and that
 it will not use this program in any manner prohibited above.
 ---------------------------------------------------------------
  

 Cite this work as:
 Gaussian 09, Revision C.01,
 M. J. Frisch, G. W. Trucks, H. B. Schlegel, G. E. Scuseria, 
 M. A. Robb, J. R. Cheeseman, G. Scalmani, V. Barone, B. Mennucci, 
 G. A. Petersson, H. Nakatsuji, M. Caricato, X. Li, H. P. Hratchian, 
 A. F. Izmaylov, J. Bloino, G. Zheng, J. L. Sonnenberg, M. Hada, 
 M. Ehara, K. Toyota, R. Fukuda, J. Hasegawa, M. Ishida, T. Nakajima, 
 Y. Honda, O. Kitao, H. Nakai, T. Vreven, J. A. Montgomery, Jr., 
 J. E. Peralta, F. Ogliaro, M. Bearpark, J. J. Heyd, E. Brothers, 
 K. N. Kudin, V. N. Staroverov, T. Keith, R. Kobayashi, J. Normand, 
 K. Raghavachari, A. Rendell, J. C. Burant, S. S. Iyengar, J. Tomasi, 
 M. Cossi, N. Rega, J. M. Millam, M. Klene, J. E. Knox, J. B. Cross, 
 V. Bakken, C. Adamo, J. Jaramillo, R. Gomperts, R. E. Stratmann, 
 O. Yazyev, A. J. Austin, R. Cammi, C. Pomelli, J. W. Ochterski, 
 R. L. Martin, K. Morokuma, V. G. Zakrzewski, G. A. Voth, 
 P. Salvador, J. J. Dannenberg, S. Dapprich, A. D. Daniels, 
 O. Farkas, J. B. Foresman, J. V. Ortiz, J. Cioslowski, 
 and D. J. Fox, Gaussian, Inc., Wallingford CT, 2010.
 
 ******************************************
 Gaussian 09:  AM64L-G09RevC.01 23-Sep-2011
                19-Sep-2024 
 ******************************************
 %nprocshared=4
 Will use up to    4 processors via shared memory.
 %mem=100mw
 --------------------------------------------------
 # mPW1PW91/6-31+G** nmr scrf=(pcm,solvent=benzene)
 --------------------------------------------------
 1/38=1/1;
 2/12=2,17=6,18=5,40=1/2;
 3/5=1,6=6,7=111,11=2,16=1,25=1,30=1,70=2201,72=12,74=-7/1,2,8,3;
 4//1;
 5/5=2,38=5,53=12/2;
 8/6=1,10=90,11=11/1;
 10/13=100,45=16/2;
 6/7=2,8=2,9=2,10=2,28=1/1;
 99/9=1/99;
 -------
 comment
 -------
 Charge =  0 Multiplicity = 1
 Symbolic Z-Matrix:
 6                     2.44422  -0.11791  -0.32471 
 6                     0.20789   1.05888   0.23052 
 6                     0.24352  -1.42404  -0.15051 
 6                    -0.61835  -0.14463  -0.29159 
 6                     1.61684  -1.31389  -0.82999 
 6                     1.588     1.15692  -0.44035 
 6                     2.99661  -0.33335   1.09445 
 8                    -0.4551    2.32333   0.11542 
 6                    -2.01334  -0.27292   0.39785 
 6                    -2.63898  -1.67329   0.26001 
 6                    -3.02554   0.76786  -0.11645 
 1                     3.31094   0.00084  -0.99027 
 1                     0.33684   0.93292   1.31298 
 1                    -0.28982  -2.27723  -0.5809 
 1                     0.37242  -1.65464   0.91715 
 1                    -0.79012   0.0152   -1.37177 
 1                     1.46553  -1.20631  -1.91412 
 1                     2.1752   -2.24879  -0.68743 
 1                     1.4262    1.3772   -1.50828 
 1                     2.11316   2.02265  -0.01838 
 1                     3.59751   0.52656   1.41348 
 1                     2.20391  -0.47233   1.83797 
 1                     3.63897  -1.2215    1.13005 
 1                    -0.55086   2.50933  -0.83321 
 1                    -1.85984  -0.08801   1.47275 
 1                    -2.75589  -1.95655  -0.79468 
 1                    -2.05283  -2.45319   0.75516 
 1                    -3.63808  -1.67983   0.71112 
 1                    -3.20891   0.62853  -1.19122 
 1                    -2.67005   1.78577   0.0457 
 1                    -3.98864   0.65105   0.39526 
 
                          Input orientation:                          
 ---------------------------------------------------------------------
 Center     Atomic      Atomic             Coordinates (Angstroms)
 Number     Number       Type             X           Y           Z
 ---------------------------------------------------------------------
      1          6           0        2.444219   -0.117910   -0.324712
      2          6           0        0.207892    1.058883    0.230515
      3          6           0        0.243515   -1.424036   -0.150513
      4          6           0       -0.618352   -0.144632   -0.291591
      5          6           0        1.616836   -1.313892   -0.829990
      6          6           0        1.588003    1.156921   -0.440349
      7          6           0        2.996607   -0.333349    1.094445
      8          8           0       -0.455097    2.323325    0.115423
      9          6           0       -2.013338   -0.272923    0.397851
     10          6           0       -2.638983   -1.673294    0.260009
     11          6           0       -3.025542    0.767856   -0.116452
     12          1           0        3.310944    0.000836   -0.990270
     13          1           0        0.336842    0.932917    1.312979
     14          1           0       -0.289824   -2.277230   -0.580903
     15          1           0        0.372415   -1.654637    0.917151
     16          1           0       -0.790122    0.015195   -1.371773
     17          1           0        1.465532   -1.206314   -1.914123
     18          1           0        2.175203   -2.248785   -0.687428
     19          1           0        1.426204    1.377203   -1.508280
     20          1           0        2.113157    2.022651   -0.018375
     21          1           0        3.597506    0.526555    1.413477
     22          1           0        2.203913   -0.472330    1.837973
     23          1           0        3.638965   -1.221499    1.130051
     24          1           0       -0.550859    2.509327   -0.833214
     25          1           0       -1.859837   -0.088010    1.472749
     26          1           0       -2.755892   -1.956550   -0.794684
     27          1           0       -2.052828   -2.453194    0.755161
     28          1           0       -3.638075   -1.679826    0.711117
     29          1           0       -3.208912    0.628526   -1.191225
     30          1           0       -2.670050    1.785769    0.045698
     31          1           0       -3.988635    0.651054    0.395257
 ---------------------------------------------------------------------
                    Distance matrix (angstroms):
                    1          2          3          4          5
     1  C    0.000000
     2  C    2.587330   0.000000
     3  C    2.565036   2.512238   0.000000
     4  C    3.062867   1.550394   1.549062   0.000000
     5  C    1.539559   2.956325   1.536174   2.579362   0.000000
     6  C    1.540023   1.537653   2.924550   2.565964   2.501513
     7  C    1.538035   3.234442   3.212325   3.876163   2.562944
     8  O    3.815676   1.432346   3.821190   2.506616   4.291394
     9  C    4.518400   2.595298   2.592132   1.561338   3.971067
    10  C    5.347902   3.945929   2.922234   2.593071   4.407864
    11  C    5.544929   3.264993   3.936024   2.580285   5.137556
    12  H    1.099218   3.498387   3.484906   3.993580   2.150396
    13  H    2.868328   1.097371   2.775923   2.155957   3.358400
    14  H    3.493320   3.469261   1.094361   2.177064   2.150678
    15  H    2.862888   2.803877   1.099863   2.173198   2.171910
    16  H    3.402207   2.156999   2.152038   1.105370   2.802400
    17  H    2.160713   3.363369   2.156629   2.846463   1.099914
    18  H    2.178201   3.956463   2.167927   3.519673   1.098236
    19  H    2.161608   2.146863   3.330049   2.824274   2.781800
    20  H    2.187566   2.149612   3.923350   3.497557   3.469521
    21  H    2.183279   3.629360   4.183315   4.596869   3.513324
    22  H    2.204669   2.985404   2.950082   3.550719   2.858481
    23  H    2.182123   4.216820   3.634549   4.615783   2.817677
    24  H    4.016396   1.952181   4.070437   2.709503   4.394988
    25  H    4.664403   2.670957   2.973892   2.158098   4.346567
    26  H    5.535578   4.350619   3.113675   2.846968   4.419842
    27  H    5.181034   4.209607   2.674435   2.912537   4.156579
    28  H    6.364497   4.745837   3.984291   3.532842   5.488443
    29  H    5.767660   3.725735   4.149138   2.849231   5.214530
    30  H    5.469638   2.974066   4.339379   2.837195   5.362100
    31  H    6.518533   4.219515   4.744993   3.530394   6.064944
                    6          7          8          9         10
     6  C    0.000000
     7  C    2.561379   0.000000
     8  O    2.417362   4.464377   0.000000
     9  C    3.964428   5.058502   3.041116   0.000000
    10  C    5.134981   5.852488   4.556668   1.539958   0.000000
    11  C    4.641237   6.240609   3.013376   1.540223   2.500073
    12  H    2.146502   2.134602   4.560655   5.509066   6.306151
    13  H    2.165581   2.953902   1.998635   2.795506   4.093485
    14  H    3.916552   4.169663   4.655888   2.818813   2.567181
    15  H    3.350421   2.943403   4.141464   2.805463   3.082321
    16  H    2.797600   4.532442   2.766127   2.170447   2.988644
    17  H    2.787811   3.486795   4.501802   4.280068   4.668186
    18  H    3.464778   2.742020   5.335470   4.756652   4.940163
    19  H    1.102352   3.488027   2.659107   4.264587   5.381275
    20  H    1.096967   2.751288   2.589254   4.740344   6.026636
    21  H    2.805732   1.096493   4.619190   5.757797   6.712944
    22  H    2.867849   1.095679   4.225305   4.460821   5.233156
    23  H    3.511336   1.096678   5.509682   5.777927   6.354032
    24  H    2.560874   4.937731   0.971432   3.375690   4.801012
    25  H    4.134900   4.877331   3.103251   1.101436   2.142646
    26  H    5.356181   6.268559   4.943610   2.192744   1.098307
    27  H    5.264772   5.486862   5.077120   2.209708   1.094074
    28  H    6.056806   6.780778   5.148924   2.171930   1.096233
    29  H    4.883995   6.682661   3.487574   2.183385   2.780157
    30  H    4.331594   6.140157   2.280317   2.189405   3.465835
    31  H    5.661540   7.088831   3.919271   2.180720   2.691179
                   11         12         13         14         15
    11  C    0.000000
    12  H    6.442277   0.000000
    13  H    3.657341   3.875437   0.000000
    14  H    4.119759   4.280502   3.779490   0.000000
    15  H    4.299177   3.874764   2.617896   1.752241   0.000000
    16  H    2.671972   4.118798   3.052893   2.476083   3.062516
    17  H    5.224817   2.390870   4.032919   2.450635   3.067900
    18  H    6.039361   2.538191   4.183829   2.467492   2.485504
    19  H    4.703885   2.390599   3.056731   4.142422   4.023088
    20  H    5.290591   2.543032   2.472917   4.957795   4.174666
    21  H    6.801740   2.477196   3.287424   5.191348   3.924939
    22  H    5.718832   3.073819   2.395056   3.915016   2.366463
    23  H    7.065901   2.469304   3.947023   4.413311   3.302012
    24  H    3.109747   4.607680   2.806996   4.800305   4.610294
    25  H    2.148705   5.728118   2.427595   3.387493   2.783156
    26  H    2.820478   6.377783   4.728241   2.496003   3.578804
    27  H    3.475780   6.151329   4.181798   2.219057   2.558464
    28  H    2.655412   7.349028   4.794646   3.638268   4.015858
    29  H    1.099170   6.553083   4.351559   4.163771   4.741728
    30  H    1.090328   6.327045   3.372648   4.750375   4.674657
    31  H    1.096830   7.458306   4.430735   4.817566   4.960579
                   16         17         18         19         20
    16  H    0.000000
    17  H    2.621870   0.000000
    18  H    3.793031   1.759306   0.000000
    19  H    2.604957   2.615495   3.792438   0.000000
    20  H    3.780290   3.799933   4.323962   1.763044   0.000000
    21  H    5.222106   4.315214   3.760221   3.738291   2.547900
    22  H    4.416378   3.893862   3.087761   3.901668   3.111140
    23  H    5.235012   3.740459   2.549734   4.313972   3.764503
    24  H    2.562808   4.363506   5.485645   2.376173   2.828038
    25  H    3.040764   4.876432   5.061310   4.672414   4.739517
    26  H    2.843424   4.431300   4.940911   5.395652   6.335956
    27  H    3.494455   4.588970   4.472034   5.647900   6.163358
    28  H    3.914379   5.758724   6.006150   6.318075   6.878747
    29  H    2.501863   5.073425   6.125473   4.705884   5.625263
    30  H    2.945893   5.467769   6.347565   4.400122   4.789498
    31  H    3.709070   6.207334   6.897403   5.785432   6.267714
                   21         22         23         24         25
    21  H    0.000000
    22  H    1.766372   0.000000
    23  H    1.771367   1.766857   0.000000
    24  H    5.117415   4.859453   5.943744   0.000000
    25  H    5.492158   4.098189   5.624861   3.711745   0.000000
    26  H    7.169899   5.808051   6.718564   4.980734   3.071744
    27  H    6.421725   4.818314   5.835591   5.422680   2.479168
    28  H    7.597043   6.070970   7.303484   5.428155   2.505213
    29  H    7.288498   6.299730   7.463534   3.275795   3.070861
    30  H    6.537484   5.662753   7.072705   2.405617   2.490776
    31  H    7.655182   6.456862   7.888388   4.096416   2.497796
                   26         27         28         29         30
    26  H    0.000000
    27  H    1.772843   0.000000
    28  H    1.766992   1.764383   0.000000
    29  H    2.654259   3.823865   3.021850   0.000000
    30  H    3.836478   4.342017   3.659263   1.777516   0.000000
    31  H    3.120130   3.676035   2.378163   1.767880   1.774383
                   31
    31  H    0.000000
 Stoichiometry    C10H20O
 Framework group  C1[X(C10H20O)]
 Deg. of freedom    87
 Full point group                 C1      NOp   1
 Largest Abelian subgroup         C1      NOp   1
 Largest concise Abelian subgroup C1      NOp   1
                         Standard orientation:                         
 ---------------------------------------------------------------------
 Center     Atomic      Atomic             Coordinates (Angstroms)
 Number     Number       Type             X           Y           Z
 ---------------------------------------------------------------------
      1          6           0        2.444219   -0.117910   -0.324712
      2          6           0        0.207892    1.058883    0.230515
      3          6           0        0.243515   -1.424036   -0.150513
      4          6           0       -0.618352   -0.144632   -0.291591
      5          6           0        1.616836   -1.313892   -0.829990
      6          6           0        1.588003    1.156921   -0.440349
      7          6           0        2.996607   -0.333349    1.094445
      8          8           0       -0.455097    2.323325    0.115423
      9          6           0       -2.013338   -0.272923    0.397851
     10          6           0       -2.638983   -1.673294    0.260009
     11          6           0       -3.025542    0.767856   -0.116452
     12          1           0        3.310944    0.000836   -0.990270
     13          1           0        0.336842    0.932917    1.312979
     14          1           0       -0.289824   -2.277230   -0.580903
     15          1           0        0.372415   -1.654637    0.917151
     16          1           0       -0.790122    0.015195   -1.371773
     17          1           0        1.465532   -1.206314   -1.914123
     18          1           0        2.175203   -2.248785   -0.687428
     19          1           0        1.426204    1.377203   -1.508280
     20          1           0        2.113157    2.022651   -0.018375
     21          1           0        3.597506    0.526555    1.413477
     22          1           0        2.203913   -0.472330    1.837973
     23          1           0        3.638965   -1.221499    1.130051
     24          1           0       -0.550859    2.509327   -0.833214
     25          1           0       -1.859837   -0.088010    1.472749
     26          1           0       -2.755892   -1.956550   -0.794684
     27          1           0       -2.052828   -2.453194    0.755161
     28          1           0       -3.638075   -1.679826    0.711117
     29          1           0       -3.208912    0.628526   -1.191225
     30          1           0       -2.670050    1.785769    0.045698
     31          1           0       -3.988635    0.651054    0.395257
 ---------------------------------------------------------------------
 Rotational constants (GHZ):      1.6456787      0.7564788      0.5859855
 Standard basis: 6-31+G(d,p) (6D, 7F)
 There are   309 symmetry adapted basis functions of A   symmetry.
 Integral buffers will be    131072 words long.
 Raffenetti 2 integral format.
 Two-electron integral symmetry is turned on.
   309 basis functions,   492 primitive gaussians,   309 cartesian basis functions
    44 alpha electrons       44 beta electrons
       nuclear repulsion energy       691.2318082263 Hartrees.
 NAtoms=   31 NActive=   31 NUniq=   31 SFac= 1.00D+00 NAtFMM=   60 NAOKFM=F Big=F
 ------------------------------------------------------------------------------
 Polarizable Continuum Model (PCM)
 =================================
 Model                : PCM.
 Atomic radii         : UFF (Universal Force Field).
 Polarization charges : Total charges.
 Charge compensation  : None.
 Solution method      : Matrix inversion.
 Cavity type          : Scaled VdW (van der Waals Surface) (Alpha=1.100).
 Cavity algorithm     : GePol (No added spheres)
                        Default sphere list used, NSphG=   31.
                        Lebedev-Laikov grids with approx.  5.0 points / Ang**2.
                        Smoothing algorithm: Karplus/York (Gamma=1.0000).
                        Polarization charges: spherical gaussians, with
                                              point-specific exponents (IZeta= 3).
                        Self-potential: point-specific (ISelfS= 7).
                        Self-field    : sphere-specific E.n sum rule (ISelfD= 2).
 Solvent              : Benzene, Eps=   2.270600 Eps(inf)=   2.253301
 ------------------------------------------------------------------------------
 One-electron integrals computed using PRISM.
 NBasis=   309 RedAO= T  NBF=   309
 NBsUse=   309 1.00D-06 NBFU=   309
 Harris functional with IExCor=  908 diagonalized for initial guess.
 ExpMin= 4.38D-02 ExpMax= 5.48D+03 ExpMxC= 8.25D+02 IAcc=2 IRadAn=         4 AccDes= 0.00D+00
 HarFok:  IExCor=  908 AccDes= 0.00D+00 IRadAn=         4 IDoV= 1
 ScaDFX=  1.000000  1.000000  1.000000  1.000000
 FoFCou: FMM=F IPFlag=           0 FMFlag=      100000 FMFlg1=           0
         NFxFlg=           0 DoJE=T BraDBF=F KetDBF=T FulRan=T
         Omega=  0.000000  0.000000  1.000000  0.000000  0.000000 ICntrl=     500 IOpCl=  0
         NMat0=    1 NMatS0=    1 NMatT0=    0 NMatD0=    1 NMtDS0=    0 NMtDT0=    0
         I1Cent=           4 NGrid=           0.
 Petite list used in FoFCou.
 Initial guess orbital symmetries:
       Occupied  (A) (A) (A) (A) (A) (A) (A) (A) (A) (A) (A) (A)
                 (A) (A) (A) (A) (A) (A) (A) (A) (A) (A) (A) (A)
                 (A) (A) (A) (A) (A) (A) (A) (A) (A) (A) (A) (A)
                 (A) (A) (A) (A) (A) (A) (A) (A)
       Virtual   (A) (A) (A) (A) (A) (A) (A) (A) (A) (A) (A) (A)
                 (A) (A) (A) (A) (A) (A) (A) (A) (A) (A) (A) (A)
                 (A) (A) (A) (A) (A) (A) (A) (A) (A) (A) (A) (A)
                 (A) (A) (A) (A) (A) (A) (A) (A) (A) (A) (A) (A)
                 (A) (A) (A) (A) (A) (A) (A) (A) (A) (A) (A) (A)
                 (A) (A) (A) (A) (A) (A) (A) (A) (A) (A) (A) (A)
                 (A) (A) (A) (A) (A) (A) (A) (A) (A) (A) (A) (A)
                 (A) (A) (A) (A) (A) (A) (A) (A) (A) (A) (A) (A)
                 (A) (A) (A) (A) (A) (A) (A) (A) (A) (A) (A) (A)
                 (A) (A) (A) (A) (A) (A) (A) (A) (A) (A) (A) (A)
                 (A) (A) (A) (A) (A) (A) (A) (A) (A) (A) (A) (A)
                 (A) (A) (A) (A) (A) (A) (A) (A) (A) (A) (A) (A)
                 (A) (A) (A) (A) (A) (A) (A) (A) (A) (A) (A) (A)
                 (A) (A) (A) (A) (A) (A) (A) (A) (A) (A) (A) (A)
                 (A) (A) (A) (A) (A) (A) (A) (A) (A) (A) (A) (A)
                 (A) (A) (A) (A) (A) (A) (A) (A) (A) (A) (A) (A)
                 (A) (A) (A) (A) (A) (A) (A) (A) (A) (A) (A) (A)
                 (A) (A) (A) (A) (A) (A) (A) (A) (A) (A) (A) (A)
                 (A) (A) (A) (A) (A) (A) (A) (A) (A) (A) (A) (A)
                 (A) (A) (A) (A) (A) (A) (A) (A) (A) (A) (A) (A)
                 (A) (A) (A) (A) (A) (A) (A) (A) (A) (A) (A) (A)
                 (A) (A) (A) (A) (A) (A) (A) (A) (A) (A) (A) (A)
                 (A)
 The electronic state of the initial guess is 1-A.
 Requested convergence on RMS density matrix=1.00D-08 within 128 cycles.
 Requested convergence on MAX density matrix=1.00D-06.
 Requested convergence on             energy=1.00D-06.
 No special actions if energy rises.
 Error on total polarization charges =  0.00932
 SCF Done:  E(RmPW1PW91) =  -468.278649318     A.U. after   12 cycles
             Convg  =    0.5027D-08             -V/T =  2.0099
 Range of M.O.s used for correlation:     1   309
 NBasis=   309 NAE=    44 NBE=    44 NFC=     0 NFV=     0
 NROrb=    309 NOA=    44 NOB=    44 NVA=   265 NVB=   265

 **** Warning!!: The largest alpha MO coefficient is  0.88959821D+02

 NEqPCM:  Using equilibrium solvation (IEInf=0, Eps=   2.2706, EpsInf=   2.2533)
          Differentiating once with respect to magnetic field using GIAOs.
          Electric field/nuclear overlap derivatives assumed to be zero.
 FoFCou: FMM=F IPFlag=           0 FMFlag=    10101102 FMFlg1=           0
         NFxFlg=    40000000 DoJE=F BraDBF=F KetDBF=T FulRan=T
         Omega=  0.000000  0.000000  1.000000  0.000000  0.000000 ICntrl=    6100 IOpCl=  0
         NMat0=    1 NMatS0=    1 NMatT0=    0 NMatD0=    1 NMtDS0=    0 NMtDT0=    0
         I1Cent=           7 NGrid=        1930.
 Symmetry not used in FoFCou.
          There are     3 degrees of freedom in the 1st order CPHF.  IDoFFX=0.
      3 vectors produced by pass  0 Test12= 3.89D-13 3.33D-08 XBig12= 3.95D+01 1.39D+00.
 AX will form     3 AO Fock derivatives at one time.
      3 vectors produced by pass  1 Test12= 3.89D-13 3.33D-08 XBig12= 9.28D-02 5.35D-02.
      3 vectors produced by pass  2 Test12= 3.89D-13 3.33D-08 XBig12= 2.37D-04 3.79D-03.
      3 vectors produced by pass  3 Test12= 3.89D-13 3.33D-08 XBig12= 7.06D-07 1.71D-04.
      3 vectors produced by pass  4 Test12= 3.89D-13 3.33D-08 XBig12= 1.22D-09 7.83D-06.
      3 vectors produced by pass  5 Test12= 3.89D-13 3.33D-08 XBig12= 2.84D-12 2.15D-07.
 Inverted reduced A of dimension    18 with in-core refinement.
 Calculating GIAO nuclear magnetic shielding tensors.
 SCF GIAO Magnetic shielding tensor (ppm):
      1  C    Isotropic =   163.3716   Anisotropy =     4.8172
   XX=   165.1892   YX=     0.1624   ZX=     0.9617
   XY=     1.9156   YY=   165.8062   ZY=    -1.7195
   XZ=     0.4465   YZ=     0.4113   ZZ=   159.1193
   Eigenvalues:   158.9508   164.5809   166.5830
      2  C    Isotropic =   121.0042   Anisotropy =    46.9586
   XX=   120.1798   YX=    -8.2459   ZX=     7.7704
   XY=    -8.6347   YY=   147.9010   ZY=    -8.2205
   XZ=     7.9629   YZ=    -9.6956   ZZ=    94.9319
   Eigenvalues:    91.9248   118.7779   152.3100
      3  C    Isotropic =   168.9962   Anisotropy =    19.8437
   XX=   178.1093   YX=    -7.7922   ZX=    -6.1609
   XY=    -4.5800   YY=   170.6444   ZY=    -1.6906
   XZ=    -4.3522   YZ=    -1.5481   ZZ=   158.2347
   Eigenvalues:   156.2130   168.5502   182.2253
      4  C    Isotropic =   141.9169   Anisotropy =    11.0985
   XX=   146.1688   YX=     6.3961   ZX=     1.1853
   XY=     0.6924   YY=   133.5264   ZY=    -2.8818
   XZ=    -3.1596   YZ=    -6.6951   ZZ=   146.0555
   Eigenvalues:   131.2740   145.1607   149.3159
      5  C    Isotropic =   162.3008   Anisotropy =    12.8418
   XX=   164.6321   YX=     4.2204   ZX=     5.5929
   XY=     4.0386   YY=   162.5607   ZY=     6.4435
   XZ=     3.7240   YZ=     0.4455   ZZ=   159.7097
   Eigenvalues:   156.6952   159.3453   170.8621
      6  C    Isotropic =   151.0392   Anisotropy =    28.4039
   XX=   162.8560   YX=   -15.9521   ZX=    -0.8390
   XY=    -7.1330   YY=   151.1478   ZY=   -10.3191
   XZ=    -7.3885   YZ=     0.5660   ZZ=   139.1138
   Eigenvalues:   134.7934   148.3491   169.9752
      7  C    Isotropic =   176.8175   Anisotropy =    30.0012
   XX=   167.8044   YX=    -4.0486   ZX=    16.4356
   XY=    -4.4361   YY=   178.3557   ZY=    -1.8670
   XZ=    19.9461   YZ=    -1.7570   ZZ=   184.2925
   Eigenvalues:   155.7762   177.8580   196.8183
      8  O    Isotropic =   260.6129   Anisotropy =    44.1448
   XX=   252.8234   YX=   -11.1854   ZX=     6.8685
   XY=   -11.8531   YY=   251.8480   ZY=    -1.3063
   XZ=    14.3290   YZ=   -29.0849   ZZ=   277.1672
   Eigenvalues:   240.2308   251.5651   290.0427
      9  C    Isotropic =   159.6867   Anisotropy =    19.6145
   XX=   169.7952   YX=     2.3171   ZX=    -6.0706
   XY=     2.5637   YY=   152.8105   ZY=     1.5547
   XZ=    -7.3851   YZ=     0.7996   ZZ=   156.4543
   Eigenvalues:   151.0703   155.2267   172.7630
     10  C    Isotropic =   174.1676   Anisotropy =    26.7601
   XX=   172.8046   YX=    11.7958   ZX=    -0.6892
   XY=     4.2552   YY=   188.6510   ZY=    -1.2737
   XZ=    -0.8492   YZ=     2.4869   ZZ=   161.0474
   Eigenvalues:   160.9405   169.5547   192.0077
     11  C    Isotropic =   170.8234   Anisotropy =    36.9270
   XX=   179.6718   YX=   -17.6707   ZX=     3.4098
   XY=   -13.7510   YY=   174.8725   ZY=    -7.4384
   XZ=     3.5000   YZ=   -12.5642   ZZ=   157.9259
   Eigenvalues:   152.6172   164.4117   195.4414
     12  H    Isotropic =    29.6387   Anisotropy =    10.0015
   XX=    33.4956   YX=     0.7099   ZX=    -4.0921
   XY=     0.8146   YY=    25.7172   ZY=    -0.8050
   XZ=    -4.2977   YZ=    -0.6907   ZZ=    29.7034
   Eigenvalues:    25.5815    27.0283    36.3064
     13  H    Isotropic =    28.0546   Anisotropy =     3.3266
   XX=    28.5000   YX=    -1.7191   ZX=     1.5781
   XY=    -2.0257   YY=    27.2596   ZY=    -0.5273
   XZ=     0.6843   YZ=     0.7395   ZZ=    28.4043
   Eigenvalues:    25.6871    28.2045    30.2724
     14  H    Isotropic =    29.9784   Anisotropy =     8.3819
   XX=    32.8462   YX=     2.1036   ZX=    -0.7351
   XY=     2.8020   YY=    33.0147   ZY=     2.9682
   XZ=    -1.3225   YZ=     2.7722   ZZ=    24.0743
   Eigenvalues:    22.9365    31.4324    35.5663
     15  H    Isotropic =    30.3402   Anisotropy =     5.6997
   XX=    31.3378   YX=    -0.2385   ZX=     0.0466
   XY=     0.1902   YY=    28.6633   ZY=    -4.4248
   XZ=     0.6173   YZ=    -3.7851   ZZ=    31.0196
   Eigenvalues:    25.5652    31.3155    34.1401
     16  H    Isotropic =    30.9279   Anisotropy =     2.9414
   XX=    32.4171   YX=    -1.0623   ZX=     0.4784
   XY=    -0.4739   YY=    28.5136   ZY=    -0.4919
   XZ=     0.3715   YZ=    -0.9817   ZZ=    31.8530
   Eigenvalues:    28.2503    31.6446    32.8889
     17  H    Isotropic =    30.1295   Anisotropy =     8.6464
   XX=    28.4008   YX=     0.4503   ZX=    -1.1225
   XY=     0.5595   YY=    26.9890   ZY=     3.1955
   XZ=    -0.8416   YZ=     2.1520   ZZ=    34.9986
   Eigenvalues:    25.9331    28.5615    35.8938
     18  H    Isotropic =    30.1429   Anisotropy =     9.5665
   XX=    30.8923   YX=    -3.5314   ZX=    -0.7104
   XY=    -3.7556   YY=    33.7651   ZY=     1.5841
   XZ=    -0.5138   YZ=     1.7409   ZZ=    25.7712
   Eigenvalues:    25.4360    28.4721    36.5205
     19  H    Isotropic =    30.4382   Anisotropy =     6.0496
   XX=    29.3557   YX=     0.1065   ZX=    -1.0056
   XY=    -0.9497   YY=    30.2430   ZY=    -3.9304
   XZ=    -1.0363   YZ=    -2.7801   ZZ=    31.7159
   Eigenvalues:    27.1179    29.7255    34.4713
     20  H    Isotropic =    29.7678   Anisotropy =     7.0603
   XX=    30.6448   YX=     2.3034   ZX=     1.0306
   XY=     2.3370   YY=    32.8239   ZY=     1.2567
   XZ=     1.2401   YZ=     0.2214   ZZ=    25.8348
   Eigenvalues:    25.5728    29.2560    34.4747
     21  H    Isotropic =    30.6474   Anisotropy =    10.3496
   XX=    31.7827   YX=     3.4667   ZX=     4.2144
   XY=     3.2033   YY=    30.5720   ZY=     1.5925
   XZ=     4.5523   YZ=     2.9987   ZZ=    29.5877
   Eigenvalues:    26.1441    28.2510    37.5472
     22  H    Isotropic =    30.2297   Anisotropy =     5.4984
   XX=    31.2514   YX=     0.1653   ZX=     0.3412
   XY=     0.1916   YY=    25.8271   ZY=    -1.4626
   XZ=    -1.0088   YZ=    -1.2886   ZZ=    33.6105
   Eigenvalues:    25.5887    31.2052    33.8953
     23  H    Isotropic =    30.8096   Anisotropy =    10.9969
   XX=    32.4256   YX=    -4.7651   ZX=     3.0055
   XY=    -4.9250   YY=    31.5820   ZY=    -1.0147
   XZ=     3.4408   YZ=    -2.3234   ZZ=    28.4213
   Eigenvalues:    26.2528    28.0351    38.1409
     24  H    Isotropic =    31.7642   Anisotropy =    13.1462
   XX=    26.9812   YX=    -2.5884   ZX=     2.2092
   XY=    -2.9229   YY=    31.9271   ZY=    -5.4876
   XZ=     2.1506   YZ=    -4.6709   ZZ=    36.3843
   Eigenvalues:    25.7506    29.0138    40.5283
     25  H    Isotropic =    29.9501   Anisotropy =     5.5103
   XX=    28.6405   YX=     0.8150   ZX=    -0.3329
   XY=     1.0153   YY=    27.7916   ZY=     0.8731
   XZ=     0.0216   YZ=     1.3156   ZZ=    33.4183
   Eigenvalues:    27.0460    29.1808    33.6237
     26  H    Isotropic =    31.0185   Anisotropy =     8.0667
   XX=    30.1677   YX=     2.0753   ZX=     1.9965
   XY=     2.3644   YY=    30.9212   ZY=     3.9745
   XZ=     1.3770   YZ=     3.4509   ZZ=    31.9667
   Eigenvalues:    27.5036    29.1557    36.3963
     27  H    Isotropic =    30.3932   Anisotropy =     8.3311
   XX=    30.5242   YX=     0.3166   ZX=     0.1205
   XY=    -1.0865   YY=    34.3367   ZY=    -4.1802
   XZ=     0.0856   YZ=    -3.6132   ZZ=    26.3188
   Eigenvalues:    24.7366    30.4958    35.9473
     28  H    Isotropic =    30.8954   Anisotropy =    10.1921
   XX=    35.0734   YX=     2.2831   ZX=    -3.7512
   XY=     3.2624   YY=    29.8032   ZY=    -1.2214
   XZ=    -3.3820   YZ=    -1.1885   ZZ=    27.8097
   Eigenvalues:    26.3496    28.6465    37.6902
     29  H    Isotropic =    31.0335   Anisotropy =     7.6640
   XX=    31.3008   YX=    -0.9121   ZX=     3.6333
   XY=    -1.3267   YY=    28.4767   ZY=    -1.8872
   XZ=     2.8548   YZ=    -0.9896   ZZ=    33.3229
   Eigenvalues:    28.0410    28.9165    36.1428
     30  H    Isotropic =    29.0330   Anisotropy =     7.4789
   XX=    31.1513   YX=     0.1059   ZX=     0.3158
   XY=     1.2135   YY=    33.8451   ZY=     0.8808
   XZ=     0.6163   YZ=    -0.0727   ZZ=    22.1025
   Eigenvalues:    22.0669    31.0131    34.0189
     31  H    Isotropic =    30.7145   Anisotropy =    10.7115
   XX=    36.4814   YX=    -1.6093   ZX=    -3.5901
   XY=    -2.6964   YY=    28.4424   ZY=    -0.0477
   XZ=    -2.5507   YZ=    -0.0237   ZZ=    27.2196
   Eigenvalues:    26.0786    28.2094    37.8555
 End of Minotr Frequency-dependent properties file   721 does not exist.
 End of Minotr Frequency-dependent properties file   722 does not exist.

 **********************************************************************

            Population analysis using the SCF density.

 **********************************************************************

 Orbital symmetries:
       Occupied  (A) (A) (A) (A) (A) (A) (A) (A) (A) (A) (A) (A)
                 (A) (A) (A) (A) (A) (A) (A) (A) (A) (A) (A) (A)
                 (A) (A) (A) (A) (A) (A) (A) (A) (A) (A) (A) (A)
                 (A) (A) (A) (A) (A) (A) (A) (A)
       Virtual   (A) (A) (A) (A) (A) (A) (A) (A) (A) (A) (A) (A)
                 (A) (A) (A) (A) (A) (A) (A) (A) (A) (A) (A) (A)
                 (A) (A) (A) (A) (A) (A) (A) (A) (A) (A) (A) (A)
                 (A) (A) (A) (A) (A) (A) (A) (A) (A) (A) (A) (A)
                 (A) (A) (A) (A) (A) (A) (A) (A) (A) (A) (A) (A)
                 (A) (A) (A) (A) (A) (A) (A) (A) (A) (A) (A) (A)
                 (A) (A) (A) (A) (A) (A) (A) (A) (A) (A) (A) (A)
                 (A) (A) (A) (A) (A) (A) (A) (A) (A) (A) (A) (A)
                 (A) (A) (A) (A) (A) (A) (A) (A) (A) (A) (A) (A)
                 (A) (A) (A) (A) (A) (A) (A) (A) (A) (A) (A) (A)
                 (A) (A) (A) (A) (A) (A) (A) (A) (A) (A) (A) (A)
                 (A) (A) (A) (A) (A) (A) (A) (A) (A) (A) (A) (A)
                 (A) (A) (A) (A) (A) (A) (A) (A) (A) (A) (A) (A)
                 (A) (A) (A) (A) (A) (A) (A) (A) (A) (A) (A) (A)
                 (A) (A) (A) (A) (A) (A) (A) (A) (A) (A) (A) (A)
                 (A) (A) (A) (A) (A) (A) (A) (A) (A) (A) (A) (A)
                 (A) (A) (A) (A) (A) (A) (A) (A) (A) (A) (A) (A)
                 (A) (A) (A) (A) (A) (A) (A) (A) (A) (A) (A) (A)
                 (A) (A) (A) (A) (A) (A) (A) (A) (A) (A) (A) (A)
                 (A) (A) (A) (A) (A) (A) (A) (A) (A) (A) (A) (A)
                 (A) (A) (A) (A) (A) (A) (A) (A) (A) (A) (A) (A)
                 (A) (A) (A) (A) (A) (A) (A) (A) (A) (A) (A) (A)
                 (A)
 The electronic state is 1-A.
 Alpha  occ. eigenvalues --  -19.24461 -10.29464 -10.25242 -10.25080 -10.25017
 Alpha  occ. eigenvalues --  -10.24221 -10.24136 -10.24097 -10.23436 -10.23103
 Alpha  occ. eigenvalues --  -10.22366  -1.05041  -0.86078  -0.82084  -0.76415
 Alpha  occ. eigenvalues --   -0.75307  -0.70001  -0.69638  -0.63131  -0.62917
 Alpha  occ. eigenvalues --   -0.57625  -0.56118  -0.51835  -0.47239  -0.46741
 Alpha  occ. eigenvalues --   -0.46378  -0.44990  -0.44025  -0.42965  -0.42640
 Alpha  occ. eigenvalues --   -0.40607  -0.39550  -0.38824  -0.38165  -0.37506
 Alpha  occ. eigenvalues --   -0.35602  -0.34932  -0.34842  -0.33865  -0.33082
 Alpha  occ. eigenvalues --   -0.32198  -0.31872  -0.30393  -0.27146
 Alpha virt. eigenvalues --    0.00808   0.01703   0.01917   0.02352   0.03949
 Alpha virt. eigenvalues --    0.04264   0.04789   0.04968   0.05682   0.06396
 Alpha virt. eigenvalues --    0.07286   0.07423   0.07612   0.08788   0.09158
 Alpha virt. eigenvalues --    0.09777   0.10124   0.10744   0.11102   0.11612
 Alpha virt. eigenvalues --    0.12386   0.12906   0.13407   0.14087   0.14967
 Alpha virt. eigenvalues --    0.15120   0.15554   0.16480   0.16603   0.17398
 Alpha virt. eigenvalues --    0.17688   0.18574   0.18806   0.19436   0.19780
 Alpha virt. eigenvalues --    0.20028   0.21397   0.21743   0.22031   0.22091
 Alpha virt. eigenvalues --    0.22646   0.23365   0.23723   0.23900   0.24360
 Alpha virt. eigenvalues --    0.24684   0.25479   0.26258   0.26344   0.26724
 Alpha virt. eigenvalues --    0.27349   0.28270   0.28631   0.29263   0.29927
 Alpha virt. eigenvalues --    0.30478   0.30980   0.32065   0.33167   0.33598
 Alpha virt. eigenvalues --    0.34029   0.35258   0.35577   0.35676   0.36298
 Alpha virt. eigenvalues --    0.37763   0.38026   0.38995   0.40056   0.40641
 Alpha virt. eigenvalues --    0.42965   0.44491   0.48155   0.49204   0.53211
 Alpha virt. eigenvalues --    0.61986   0.63432   0.64069   0.65678   0.66205
 Alpha virt. eigenvalues --    0.67153   0.69566   0.70918   0.71958   0.72602
 Alpha virt. eigenvalues --    0.73173   0.74497   0.74823   0.75327   0.76098
 Alpha virt. eigenvalues --    0.77930   0.78347   0.81344   0.81590   0.84756
 Alpha virt. eigenvalues --    0.85334   0.87041   0.88915   0.89670   0.94799
 Alpha virt. eigenvalues --    0.97526   0.98128   0.98959   0.99422   1.01176
 Alpha virt. eigenvalues --    1.01556   1.01837   1.02617   1.03905   1.05216
 Alpha virt. eigenvalues --    1.06710   1.08164   1.08797   1.09954   1.12208
 Alpha virt. eigenvalues --    1.12514   1.14361   1.15276   1.15830   1.16410
 Alpha virt. eigenvalues --    1.17365   1.18522   1.19287   1.19926   1.20981
 Alpha virt. eigenvalues --    1.22689   1.25388   1.26677   1.28850   1.31342
 Alpha virt. eigenvalues --    1.36144   1.38800   1.39795   1.42008   1.45551
 Alpha virt. eigenvalues --    1.49756   1.50422   1.52268   1.52812   1.54534
 Alpha virt. eigenvalues --    1.58235   1.60492   1.60778   1.64718   1.66123
 Alpha virt. eigenvalues --    1.72400   1.74687   1.75502   1.76048   1.80900
 Alpha virt. eigenvalues --    1.83830   1.84619   1.85876   1.86753   1.87629
 Alpha virt. eigenvalues --    1.88937   1.89321   1.90169   1.91688   1.92843
 Alpha virt. eigenvalues --    1.94250   1.96296   1.98092   2.00313   2.03029
 Alpha virt. eigenvalues --    2.04948   2.06234   2.07134   2.08558   2.09443
 Alpha virt. eigenvalues --    2.10415   2.10559   2.13085   2.14919   2.16311
 Alpha virt. eigenvalues --    2.16779   2.17277   2.18358   2.19258   2.19555
 Alpha virt. eigenvalues --    2.20816   2.22190   2.23356   2.25420   2.29705
 Alpha virt. eigenvalues --    2.31569   2.33596   2.35289   2.37284   2.38501
 Alpha virt. eigenvalues --    2.39799   2.41091   2.41839   2.43611   2.44946
 Alpha virt. eigenvalues --    2.46038   2.48301   2.50193   2.53084   2.57370
 Alpha virt. eigenvalues --    2.58326   2.61011   2.62111   2.62554   2.64043
 Alpha virt. eigenvalues --    2.67121   2.67561   2.70977   2.71909   2.73502
 Alpha virt. eigenvalues --    2.73616   2.75598   2.76501   2.77310   2.78145
 Alpha virt. eigenvalues --    2.78921   2.80879   2.82382   2.85269   2.86952
 Alpha virt. eigenvalues --    2.87773   2.90245   2.91138   2.91770   2.92204
 Alpha virt. eigenvalues --    2.92888   2.94376   2.94628   2.96777   2.97706
 Alpha virt. eigenvalues --    3.00733   3.03890   3.07163   3.15859   3.29303
 Alpha virt. eigenvalues --    3.29789   3.31601   3.35491   3.36677   3.38204
 Alpha virt. eigenvalues --    3.39815   3.43169   3.46212   3.48925   3.50131
 Alpha virt. eigenvalues --    3.51165   3.53795   3.54227   3.55996   3.56639
 Alpha virt. eigenvalues --    3.58293   3.59586   3.61985   3.65155   4.35643
 Alpha virt. eigenvalues --    4.43959   4.48612   4.51587   4.54174   4.61129
 Alpha virt. eigenvalues --    4.65548   4.75089   4.82403   4.86280   4.90201
          Condensed to atoms (all electrons):
              1          2          3          4          5          6
     1  C    6.246961  -0.186249  -0.406495   0.099841   0.032466  -0.240310
     2  C   -0.186249   7.210140  -0.585949  -0.824573   0.156929  -0.452655
     3  C   -0.406495  -0.585949   6.984576  -0.386398  -0.306551   0.226580
     4  C    0.099841  -0.824573  -0.386398   7.973324  -0.307743   0.079722
     5  C    0.032466   0.156929  -0.306551  -0.307743   6.282098   0.111204
     6  C   -0.240310  -0.452655   0.226580   0.079722   0.111204   6.319942
     7  C    0.215952   0.041788  -0.081128   0.058253  -0.074991  -0.130586
     8  O   -0.027529   0.209166   0.061035  -0.120222   0.009005  -0.037008
     9  C   -0.004181   0.204638   0.390339  -1.585011   0.101872  -0.003676
    10  C   -0.006109  -0.096979  -0.020911   0.338820  -0.037847  -0.005559
    11  C    0.024748  -0.019621  -0.064412   0.294206  -0.074356  -0.036705
    12  H    0.266320   0.034253   0.049913  -0.008331  -0.033147   0.004935
    13  H    0.042704   0.492661  -0.016913  -0.023717  -0.032553  -0.107497
    14  H    0.036062   0.029096   0.276508  -0.028522   0.052934  -0.003626
    15  H    0.028630   0.013716   0.402422  -0.040375  -0.079317  -0.039601
    16  H    0.029506   0.046779  -0.052756   0.349905  -0.032052  -0.049300
    17  H    0.018241  -0.004270  -0.066842   0.052891   0.357508  -0.055100
    18  H   -0.089824  -0.008717  -0.076666   0.032181   0.427308   0.037461
    19  H    0.025626   0.019414  -0.016273   0.018273  -0.058682   0.320038
    20  H   -0.073508  -0.115535  -0.007939   0.039638   0.037922   0.458998
    21  H   -0.089303   0.008321  -0.013540  -0.009337   0.040805  -0.002701
    22  H   -0.065191   0.018154   0.012878   0.016372  -0.028480  -0.014063
    23  H   -0.097846  -0.015391   0.007692  -0.003990   0.002220   0.035654
    24  H    0.016066   0.100474  -0.010445  -0.038818  -0.007913  -0.050980
    25  H   -0.000460   0.023561  -0.045235   0.027151   0.000512   0.002002
    26  H    0.000529   0.005211  -0.028052   0.039109   0.001251  -0.000645
    27  H   -0.000225  -0.001967   0.032225  -0.051718   0.001034  -0.001341
    28  H   -0.000110  -0.004669  -0.013336   0.073658   0.000471   0.000168
    29  H   -0.000439   0.006450  -0.008240   0.023489   0.000879   0.001518
    30  H    0.000705  -0.017386  -0.001265   0.024505  -0.001146   0.001149
    31  H   -0.000200   0.005642  -0.006691   0.038398   0.000065  -0.000555
              7          8          9         10         11         12
     1  C    0.215952  -0.027529  -0.004181  -0.006109   0.024748   0.266320
     2  C    0.041788   0.209166   0.204638  -0.096979  -0.019621   0.034253
     3  C   -0.081128   0.061035   0.390339  -0.020911  -0.064412   0.049913
     4  C    0.058253  -0.120222  -1.585011   0.338820   0.294206  -0.008331
     5  C   -0.074991   0.009005   0.101872  -0.037847  -0.074356  -0.033147
     6  C   -0.130586  -0.037008  -0.003676  -0.005559  -0.036705   0.004935
     7  C    5.358710  -0.002846  -0.015938  -0.001868   0.004208  -0.024816
     8  O   -0.002846   8.261082   0.033433   0.008203  -0.044478  -0.000555
     9  C   -0.015938   0.033433   7.910758  -0.408342  -0.502108   0.000198
    10  C   -0.001868   0.008203  -0.408342   5.627884  -0.019084   0.000413
    11  C    0.004208  -0.044478  -0.502108  -0.019084   5.688370   0.000054
    12  H   -0.024816  -0.000555   0.000198   0.000413   0.000054   0.575111
    13  H    0.014514  -0.070299  -0.059086   0.004744   0.020335  -0.000148
    14  H    0.000200  -0.000447  -0.016516  -0.007300  -0.009007  -0.000137
    15  H    0.010090  -0.000539   0.008610  -0.004708   0.006829  -0.000089
    16  H    0.004611  -0.014080  -0.051060  -0.007779   0.030666  -0.000083
    17  H    0.012500  -0.000272   0.000239   0.001573   0.001863  -0.006059
    18  H    0.005420   0.000095  -0.003690  -0.000534   0.000185  -0.001813
    19  H    0.013386  -0.014180  -0.003318   0.001428   0.004038  -0.006202
    20  H   -0.004078  -0.000225  -0.006773   0.000067  -0.001214  -0.002004
    21  H    0.424209  -0.000136   0.000341  -0.000180  -0.000150  -0.003693
    22  H    0.415775  -0.000278  -0.002599   0.002170   0.000076   0.004801
    23  H    0.430575   0.000045  -0.000390  -0.000276  -0.000014  -0.003800
    24  H    0.002533   0.236838  -0.045428  -0.002895   0.031642  -0.000017
    25  H    0.001634  -0.002285   0.244996  -0.021363   0.034560   0.000000
    26  H    0.000205  -0.000081  -0.129744   0.449038   0.009130   0.000000
    27  H   -0.000215   0.000061  -0.030116   0.421158  -0.006261   0.000000
    28  H   -0.000062   0.000015  -0.181424   0.471447   0.011059   0.000000
    29  H    0.000055  -0.002179  -0.133991   0.000383   0.456215   0.000000
    30  H   -0.000083  -0.005659  -0.078861  -0.000527   0.444251   0.000000
    31  H   -0.000020   0.000945  -0.133980   0.011008   0.439320   0.000000
             13         14         15         16         17         18
     1  C    0.042704   0.036062   0.028630   0.029506   0.018241  -0.089824
     2  C    0.492661   0.029096   0.013716   0.046779  -0.004270  -0.008717
     3  C   -0.016913   0.276508   0.402422  -0.052756  -0.066842  -0.076666
     4  C   -0.023717  -0.028522  -0.040375   0.349905   0.052891   0.032181
     5  C   -0.032553   0.052934  -0.079317  -0.032052   0.357508   0.427308
     6  C   -0.107497  -0.003626  -0.039601  -0.049300  -0.055100   0.037461
     7  C    0.014514   0.000200   0.010090   0.004611   0.012500   0.005420
     8  O   -0.070299  -0.000447  -0.000539  -0.014080  -0.000272   0.000095
     9  C   -0.059086  -0.016516   0.008610  -0.051060   0.000239  -0.003690
    10  C    0.004744  -0.007300  -0.004708  -0.007779   0.001573  -0.000534
    11  C    0.020335  -0.009007   0.006829   0.030666   0.001863   0.000185
    12  H   -0.000148  -0.000137  -0.000089  -0.000083  -0.006059  -0.001813
    13  H    0.558898  -0.000097   0.002436   0.004769   0.000074   0.000007
    14  H   -0.000097   0.548414  -0.029715  -0.003995  -0.004855  -0.002929
    15  H    0.002436  -0.029715   0.546140   0.004903   0.004601  -0.003382
    16  H    0.004769  -0.003995   0.004903   0.572149   0.002779   0.000038
    17  H    0.000074  -0.004855   0.004601   0.002779   0.548275  -0.027437
    18  H    0.000007  -0.002929  -0.003382   0.000038  -0.027437   0.551315
    19  H    0.004582  -0.000047   0.000097   0.002870   0.002679  -0.000003
    20  H   -0.004991   0.000010  -0.000022  -0.000056  -0.000046  -0.000132
    21  H    0.000105   0.000002  -0.000033   0.000001  -0.000131   0.000057
    22  H   -0.002038  -0.000037  -0.001090  -0.000036  -0.000081  -0.000050
    23  H   -0.000010  -0.000020   0.000155   0.000001   0.000058   0.002906
    24  H    0.008151  -0.000003   0.000011   0.004339   0.000018   0.000000
    25  H    0.003848   0.000095   0.002313   0.005032   0.000001   0.000003
    26  H    0.000004  -0.000130   0.000384   0.002398   0.000017   0.000002
    27  H    0.000020  -0.002901   0.000134   0.000048   0.000007   0.000004
    28  H   -0.000004   0.000205  -0.000047  -0.000103   0.000000   0.000000
    29  H    0.000002   0.000034   0.000004   0.003408   0.000000   0.000000
    30  H    0.000096   0.000003  -0.000003  -0.000237   0.000000   0.000000
    31  H    0.000002  -0.000005   0.000002   0.000120   0.000000   0.000000
             19         20         21         22         23         24
     1  C    0.025626  -0.073508  -0.089303  -0.065191  -0.097846   0.016066
     2  C    0.019414  -0.115535   0.008321   0.018154  -0.015391   0.100474
     3  C   -0.016273  -0.007939  -0.013540   0.012878   0.007692  -0.010445
     4  C    0.018273   0.039638  -0.009337   0.016372  -0.003990  -0.038818
     5  C   -0.058682   0.037922   0.040805  -0.028480   0.002220  -0.007913
     6  C    0.320038   0.458998  -0.002701  -0.014063   0.035654  -0.050980
     7  C    0.013386  -0.004078   0.424209   0.415775   0.430575   0.002533
     8  O   -0.014180  -0.000225  -0.000136  -0.000278   0.000045   0.236838
     9  C   -0.003318  -0.006773   0.000341  -0.002599  -0.000390  -0.045428
    10  C    0.001428   0.000067  -0.000180   0.002170  -0.000276  -0.002895
    11  C    0.004038  -0.001214  -0.000150   0.000076  -0.000014   0.031642
    12  H   -0.006202  -0.002004  -0.003693   0.004801  -0.003800  -0.000017
    13  H    0.004582  -0.004991   0.000105  -0.002038  -0.000010   0.008151
    14  H   -0.000047   0.000010   0.000002  -0.000037  -0.000020  -0.000003
    15  H    0.000097  -0.000022  -0.000033  -0.001090   0.000155   0.000011
    16  H    0.002870  -0.000056   0.000001  -0.000036   0.000001   0.004339
    17  H    0.002679  -0.000046  -0.000131  -0.000081   0.000058   0.000018
    18  H   -0.000003  -0.000132   0.000057  -0.000050   0.002906   0.000000
    19  H    0.555141  -0.029307   0.000047  -0.000107  -0.000129   0.005414
    20  H   -0.029307   0.531534   0.002776  -0.000072   0.000061  -0.001095
    21  H    0.000047   0.002776   0.529096  -0.027506  -0.024806   0.000000
    22  H   -0.000107  -0.000072  -0.027506   0.537024  -0.027799  -0.000007
    23  H   -0.000129   0.000061  -0.024806  -0.027799   0.530380   0.000000
    24  H    0.005414  -0.001095   0.000000  -0.000007   0.000000   0.396338
    25  H    0.000003  -0.000004   0.000000  -0.000027   0.000000   0.000241
    26  H    0.000000   0.000000   0.000000   0.000000   0.000000   0.000003
    27  H    0.000000   0.000000   0.000000  -0.000001   0.000000   0.000000
    28  H    0.000000   0.000000   0.000000   0.000000   0.000000   0.000000
    29  H    0.000002   0.000000   0.000000   0.000000   0.000000   0.000212
    30  H    0.000011   0.000004   0.000000   0.000000   0.000000  -0.001788
    31  H    0.000000   0.000000   0.000000   0.000000   0.000000  -0.000004
             25         26         27         28         29         30
     1  C   -0.000460   0.000529  -0.000225  -0.000110  -0.000439   0.000705
     2  C    0.023561   0.005211  -0.001967  -0.004669   0.006450  -0.017386
     3  C   -0.045235  -0.028052   0.032225  -0.013336  -0.008240  -0.001265
     4  C    0.027151   0.039109  -0.051718   0.073658   0.023489   0.024505
     5  C    0.000512   0.001251   0.001034   0.000471   0.000879  -0.001146
     6  C    0.002002  -0.000645  -0.001341   0.000168   0.001518   0.001149
     7  C    0.001634   0.000205  -0.000215  -0.000062   0.000055  -0.000083
     8  O   -0.002285  -0.000081   0.000061   0.000015  -0.002179  -0.005659
     9  C    0.244996  -0.129744  -0.030116  -0.181424  -0.133991  -0.078861
    10  C   -0.021363   0.449038   0.421158   0.471447   0.000383  -0.000527
    11  C    0.034560   0.009130  -0.006261   0.011059   0.456215   0.444251
    12  H    0.000000   0.000000   0.000000   0.000000   0.000000   0.000000
    13  H    0.003848   0.000004   0.000020  -0.000004   0.000002   0.000096
    14  H    0.000095  -0.000130  -0.002901   0.000205   0.000034   0.000003
    15  H    0.002313   0.000384   0.000134  -0.000047   0.000004  -0.000003
    16  H    0.005032   0.002398   0.000048  -0.000103   0.003408  -0.000237
    17  H    0.000001   0.000017   0.000007   0.000000   0.000000   0.000000
    18  H    0.000003   0.000002   0.000004   0.000000   0.000000   0.000000
    19  H    0.000003   0.000000   0.000000   0.000000   0.000002   0.000011
    20  H   -0.000004   0.000000   0.000000   0.000000   0.000000   0.000004
    21  H    0.000000   0.000000   0.000000   0.000000   0.000000   0.000000
    22  H   -0.000027   0.000000  -0.000001   0.000000   0.000000   0.000000
    23  H    0.000000   0.000000   0.000000   0.000000   0.000000   0.000000
    24  H    0.000241   0.000003   0.000000   0.000000   0.000212  -0.001788
    25  H    0.573486   0.004945  -0.003893  -0.003067   0.004839  -0.003389
    26  H    0.004945   0.533062  -0.028619  -0.027791   0.002939  -0.000010
    27  H   -0.003893  -0.028619   0.532176  -0.026218   0.000001  -0.000141
    28  H   -0.003067  -0.027791  -0.026218   0.533816  -0.000237   0.000140
    29  H    0.004839   0.002939   0.000001  -0.000237   0.543327  -0.026815
    30  H   -0.003389  -0.000010  -0.000141   0.000140  -0.026815   0.498387
    31  H   -0.002896  -0.000062   0.000128   0.003248  -0.028517  -0.024331
             31
     1  C   -0.000200
     2  C    0.005642
     3  C   -0.006691
     4  C    0.038398
     5  C    0.000065
     6  C   -0.000555
     7  C   -0.000020
     8  O    0.000945
     9  C   -0.133980
    10  C    0.011008
    11  C    0.439320
    12  H    0.000000
    13  H    0.000002
    14  H   -0.000005
    15  H    0.000002
    16  H    0.000120
    17  H    0.000000
    18  H    0.000000
    19  H    0.000000
    20  H    0.000000
    21  H    0.000000
    22  H    0.000000
    23  H    0.000000
    24  H   -0.000004
    25  H   -0.002896
    26  H   -0.000062
    27  H    0.000128
    28  H    0.003248
    29  H   -0.028517
    30  H   -0.024331
    31  H    0.542501
 Mulliken atomic charges:
              1
     1  C    0.203618
     2  C   -0.292433
     3  C   -0.228131
     4  C   -0.150982
     5  C   -0.541705
     6  C   -0.367463
     7  C   -0.677986
     8  O   -0.476625
     9  C    0.500804
    10  C   -0.696074
    11  C   -0.724348
    12  H    0.154896
    13  H    0.159397
    14  H    0.166726
    15  H    0.167444
    16  H    0.147214
    17  H    0.161767
    18  H    0.158193
    19  H    0.155200
    20  H    0.175989
    21  H    0.165755
    22  H    0.162213
    23  H    0.164726
    24  H    0.357113
    25  H    0.153395
    26  H    0.166907
    27  H    0.166620
    28  H    0.162841
    29  H    0.156658
    30  H    0.192389
    31  H    0.155880
 Sum of Mulliken atomic charges =   0.00000
 Mulliken charges with hydrogens summed into heavy atoms:
              1
     1  C    0.358514
     2  C   -0.133036
     3  C    0.106039
     4  C   -0.003767
     5  C   -0.221745
     6  C   -0.036273
     7  C   -0.185293
     8  O   -0.119512
     9  C    0.654199
    10  C   -0.199706
    11  C   -0.219421
 Sum of Mulliken charges with hydrogens summed into heavy atoms =   0.00000
 Electronic spatial extent (au):  <R**2>=           2139.6492
 Charge=              0.0000 electrons
 Dipole moment (field-independent basis, Debye):
    X=              0.9092    Y=             -1.2818    Z=             -1.3040  Tot=              2.0421
 Quadrupole moment (field-independent basis, Debye-Ang):
   XX=            -72.3813   YY=            -76.2474   ZZ=            -70.1457
   XY=              0.9202   XZ=              0.4892   YZ=             -3.9761
 Traceless Quadrupole moment (field-independent basis, Debye-Ang):
   XX=              0.5435   YY=             -3.3226   ZZ=              2.7791
   XY=              0.9202   XZ=              0.4892   YZ=             -3.9761
 Octapole moment (field-independent basis, Debye-Ang**2):
  XXX=              6.5460  YYY=             -2.2659  ZZZ=             -2.2698  XYY=              4.3581
  XXY=              2.4643  XXZ=              0.8618  XZZ=             -1.9097  YZZ=              6.4889
  YYZ=            -11.2242  XYZ=              2.7264
 Hexadecapole moment (field-independent basis, Debye-Ang**3):
 XXXX=          -1908.7808 YYYY=           -810.3317 ZZZZ=           -273.3335 XXXY=              0.5511
 XXXZ=            -16.2784 YYYX=             -9.5420 YYYZ=            -31.0308 ZZZX=             -2.3523
 ZZZY=             -3.0237 XXYY=           -450.9582 XXZZ=           -365.8942 YYZZ=           -169.0322
 XXYZ=              0.9502 YYXZ=              9.8430 ZZXY=             -0.2692
 N-N= 6.912318082263D+02 E-N=-2.467737341756D+03  KE= 4.636921276825D+02
 1\1\GINC-COMPUTE-10-2\SP\RmPW1PW91\6-31+G(d,p)\C10H20O1\ASAROTTI.IQUIR
 \19-Sep-2024\0\\# mPW1PW91/6-31+G** nmr scrf=(pcm,solvent=benzene)\\co
 mment\\0,1\C,0,2.444219,-0.11791,-0.324712\C,0,0.207892,1.058883,0.230
 515\C,0,0.243515,-1.424036,-0.150513\C,0,-0.618352,-0.144632,-0.291591
 \C,0,1.616836,-1.313892,-0.82999\C,0,1.588003,1.156921,-0.440349\C,0,2
 .996607,-0.333349,1.094445\O,0,-0.455097,2.323325,0.115423\C,0,-2.0133
 38,-0.272923,0.397851\C,0,-2.638983,-1.673294,0.260009\C,0,-3.025542,0
 .767856,-0.116452\H,0,3.310944,0.000836,-0.99027\H,0,0.336842,0.932917
 ,1.312979\H,0,-0.289824,-2.27723,-0.580903\H,0,0.372415,-1.654637,0.91
 7151\H,0,-0.790122,0.015195,-1.371773\H,0,1.465532,-1.206314,-1.914123
 \H,0,2.175203,-2.248785,-0.687428\H,0,1.426204,1.377203,-1.50828\H,0,2
 .113157,2.022651,-0.018375\H,0,3.597506,0.526555,1.413477\H,0,2.203913
 ,-0.47233,1.837973\H,0,3.638965,-1.221499,1.130051\H,0,-0.550859,2.509
 327,-0.833214\H,0,-1.859837,-0.08801,1.472749\H,0,-2.755892,-1.95655,-
 0.794684\H,0,-2.052828,-2.453194,0.755161\H,0,-3.638075,-1.679826,0.71
 1117\H,0,-3.208912,0.628526,-1.191225\H,0,-2.67005,1.785769,0.045698\H
 ,0,-3.988635,0.651054,0.395257\\Version=AM64L-G09RevC.01\State=1-A\HF=
 -468.2786493\RMSD=5.027e-09\Dipole=0.3577214,-0.5042979,-0.5130306\Qua
 drupole=0.4040528,-2.4702364,2.0661836,0.6841648,0.3636749,-2.9561392\
 PG=C01 [X(C10H20O1)]\\@


 THE 2ND LAW OF THERMODYNAMICS HAS THE SAME
 DEGREE OF TRUTH AS THE STATEMENT THAT IF YOU THROW
 A TUMBLERFULL OF WATER INTO THE SEA, YOU CANNOT GET
 THE SAME TUMBLERFULL OF WATER OUT AGAIN.
          - J.C. MAXWELL, LETTER TO LORD RAYLEIGH, DECEMBER 6,1870
 Job cpu time:  0 days  0 hours  9 minutes 22.1 seconds.
 File lengths (MBytes):  RWF=    121 Int=      0 D2E=      0 Chk=      7 Scr=      1
 Normal termination of Gaussian 09 at Thu Sep 19 08:51:20 2024.
