 Entering Gaussian System, Link 0=g09
 Input=/home/asarotti.iquir/SCF2/02_Mentol07_OptB_NMR_benzene.gjc
 Output=/home/asarotti.iquir/SCF2/02_Mentol07_OptB_NMR_benzene.log
 Initial command:
 /opt/ohpc/pub/apps/software/Gaussian/09/EM64T.SSE4.2-enabled/g09/l1.exe /local/asarotti.iquir/Gau-993102.inp -scrdir=/local/asarotti.iquir/
 Entering Link 1 = /opt/ohpc/pub/apps/software/Gaussian/09/EM64T.SSE4.2-enabled/g09/l1.exe PID=    993103.
  
 Copyright (c) 1988,1990,1992,1993,1995,1998,2003,2009,2011,
            Gaussian, Inc.  All Rights Reserved.
  
 This is part of the Gaussian(R) 09 program.  It is based on
 the Gaussian(R) 03 system (copyright 2003, Gaussian, Inc.),
 the Gaussian(R) 98 system (copyright 1998, Gaussian, Inc.),
 the Gaussian(R) 94 system (copyright 1995, Gaussian, Inc.),
 the Gaussian 92(TM) system (copyright 1992, Gaussian, Inc.),
 the Gaussian 90(TM) system (copyright 1990, Gaussian, Inc.),
 the Gaussian 88(TM) system (copyright 1988, Gaussian, Inc.),
 the Gaussian 86(TM) system (copyright 1986, Carnegie Mellon
 University), and the Gaussian 82(TM) system (copyright 1983,
 Carnegie Mellon University). Gaussian is a federally registered
 trademark of Gaussian, Inc.
  
 This software contains proprietary and confidential information,
 including trade secrets, belonging to Gaussian, Inc.
  
 This software is provided under written license and may be
 used, copied, transmitted, or stored only in accord with that
 written license.
  
 The following legend is applicable only to US Government
 contracts under FAR:
  
                    RESTRICTED RIGHTS LEGEND
  
 Use, reproduction and disclosure by the US Government is
 subject to restrictions as set forth in subparagraphs (a)
 and (c) of the Commercial Computer Software - Restricted
 Rights clause in FAR 52.227-19.
  
 Gaussian, Inc.
 340 Quinnipiac St., Bldg. 40, Wallingford CT 06492
  
  
 ---------------------------------------------------------------
 Warning -- This program may not be used in any manner that
 competes with the business of Gaussian, Inc. or will provide
 assistance to any competitor of Gaussian, Inc.  The licensee
 of this program is prohibited from giving any competitor of
 Gaussian, Inc. access to this program.  By using this program,
 the user acknowledges that Gaussian, Inc. is engaged in the
 business of creating and licensing software in the field of
 computational chemistry and represents and warrants to the
 licensee that it is not a competitor of Gaussian, Inc. and that
 it will not use this program in any manner prohibited above.
 ---------------------------------------------------------------
  

 Cite this work as:
 Gaussian 09, Revision C.01,
 M. J. Frisch, G. W. Trucks, H. B. Schlegel, G. E. Scuseria, 
 M. A. Robb, J. R. Cheeseman, G. Scalmani, V. Barone, B. Mennucci, 
 G. A. Petersson, H. Nakatsuji, M. Caricato, X. Li, H. P. Hratchian, 
 A. F. Izmaylov, J. Bloino, G. Zheng, J. L. Sonnenberg, M. Hada, 
 M. Ehara, K. Toyota, R. Fukuda, J. Hasegawa, M. Ishida, T. Nakajima, 
 Y. Honda, O. Kitao, H. Nakai, T. Vreven, J. A. Montgomery, Jr., 
 J. E. Peralta, F. Ogliaro, M. Bearpark, J. J. Heyd, E. Brothers, 
 K. N. Kudin, V. N. Staroverov, T. Keith, R. Kobayashi, J. Normand, 
 K. Raghavachari, A. Rendell, J. C. Burant, S. S. Iyengar, J. Tomasi, 
 M. Cossi, N. Rega, J. M. Millam, M. Klene, J. E. Knox, J. B. Cross, 
 V. Bakken, C. Adamo, J. Jaramillo, R. Gomperts, R. E. Stratmann, 
 O. Yazyev, A. J. Austin, R. Cammi, C. Pomelli, J. W. Ochterski, 
 R. L. Martin, K. Morokuma, V. G. Zakrzewski, G. A. Voth, 
 P. Salvador, J. J. Dannenberg, S. Dapprich, A. D. Daniels, 
 O. Farkas, J. B. Foresman, J. V. Ortiz, J. Cioslowski, 
 and D. J. Fox, Gaussian, Inc., Wallingford CT, 2010.
 
 ******************************************
 Gaussian 09:  EM64L-G09RevC.01 23-Sep-2011
                19-Sep-2024 
 ******************************************
 %nprocshared=4
 Will use up to    4 processors via shared memory.
 %mem=100mw
 --------------------------------------------------
 # mPW1PW91/6-31+G** nmr scrf=(pcm,solvent=benzene)
 --------------------------------------------------
 1/38=1/1;
 2/12=2,17=6,18=5,40=1/2;
 3/5=1,6=6,7=111,11=2,16=1,25=1,30=1,70=2201,72=12,74=-7/1,2,8,3;
 4//1;
 5/5=2,38=5,53=12/2;
 8/6=1,10=90,11=11/1;
 10/13=100,45=16/2;
 6/7=2,8=2,9=2,10=2,28=1/1;
 99/9=1/99;
 -------
 comment
 -------
 Charge =  0 Multiplicity = 1
 Symbolic Z-Matrix:
 6                     2.42487   0.12241  -0.26626 
 6                     0.01449   0.92798   0.19162 
 6                     0.43192  -1.48691  -0.39379 
 6                    -0.57103  -0.31553  -0.5097 
 6                     1.82614  -1.13225  -0.93353 
 6                     1.40841   1.27918  -0.35335 
 6                     2.89714  -0.1412    1.17374 
 8                    -0.84336   2.0732    0.12196 
 6                    -1.99488  -0.73733  -0.03809 
 6                    -3.11586   0.08833  -0.69212 
 6                    -2.16123  -0.74536   1.49081 
 1                     3.31274   0.41801  -0.84305 
 1                     0.09014   0.72635   1.26569 
 1                     0.03669  -2.35234  -0.94131 
 1                     0.50633  -1.80274   0.65604 
 1                    -0.64651  -0.06762  -1.58369 
 1                     1.74824  -0.95292  -2.01587 
 1                     2.5056   -1.98602  -0.80944 
 1                     1.29388   1.57132  -1.40981 
 1                     1.77787   2.16481   0.17841 
 1                     3.3363    0.76299   1.61178 
 1                     2.08237  -0.46133   1.83264 
 1                     3.6618   -0.92705   1.19291 
 1                    -0.93802   2.30283  -0.81702 
 1                    -2.12341  -1.77442  -0.38465 
 1                    -3.08251   1.12868  -0.35681 
 1                    -3.0326    0.07552  -1.78657 
 1                    -4.09957  -0.32183  -0.4321 
 1                    -2.14043   0.2726    1.89494 
 1                    -1.37742  -1.32737   1.99019 
 1                    -3.12444  -1.19093   1.76605 
 
                          Input orientation:                          
 ---------------------------------------------------------------------
 Center     Atomic      Atomic             Coordinates (Angstroms)
 Number     Number       Type             X           Y           Z
 ---------------------------------------------------------------------
      1          6           0        2.424871    0.122407   -0.266259
      2          6           0        0.014494    0.927983    0.191622
      3          6           0        0.431918   -1.486908   -0.393791
      4          6           0       -0.571031   -0.315530   -0.509702
      5          6           0        1.826143   -1.132248   -0.933527
      6          6           0        1.408405    1.279176   -0.353351
      7          6           0        2.897141   -0.141200    1.173739
      8          8           0       -0.843360    2.073199    0.121959
      9          6           0       -1.994876   -0.737333   -0.038092
     10          6           0       -3.115857    0.088325   -0.692123
     11          6           0       -2.161233   -0.745361    1.490812
     12          1           0        3.312736    0.418005   -0.843050
     13          1           0        0.090135    0.726353    1.265687
     14          1           0        0.036694   -2.352335   -0.941312
     15          1           0        0.506331   -1.802744    0.656039
     16          1           0       -0.646513   -0.067618   -1.583690
     17          1           0        1.748239   -0.952917   -2.015866
     18          1           0        2.505602   -1.986015   -0.809437
     19          1           0        1.293878    1.571322   -1.409806
     20          1           0        1.777868    2.164808    0.178405
     21          1           0        3.336297    0.762985    1.611782
     22          1           0        2.082373   -0.461326    1.832636
     23          1           0        3.661804   -0.927052    1.192912
     24          1           0       -0.938023    2.302834   -0.817020
     25          1           0       -2.123412   -1.774417   -0.384645
     26          1           0       -3.082513    1.128675   -0.356810
     27          1           0       -3.032602    0.075518   -1.786566
     28          1           0       -4.099574   -0.321831   -0.432095
     29          1           0       -2.140425    0.272603    1.894944
     30          1           0       -1.377420   -1.327368    1.990192
     31          1           0       -3.124441   -1.190929    1.766052
 ---------------------------------------------------------------------
                    Distance matrix (angstroms):
                    1          2          3          4          5
     1  C    0.000000
     2  C    2.582349   0.000000
     3  C    2.564765   2.519653   0.000000
     4  C    3.037512   1.543055   1.546437   0.000000
     5  C    1.542038   2.965229   1.536542   2.567703   0.000000
     6  C    1.542369   1.537309   2.933664   2.546704   2.515169
     7  C    1.538220   3.227594   3.216427   3.859091   2.563159
     8  O    3.825916   1.432580   3.816634   2.485797   4.302928
     9  C    4.508367   2.619850   2.564705   1.558098   3.944356
    10  C    5.557175   3.359334   3.893208   2.583121   5.096218
    11  C    4.987251   3.036736   3.290297   2.591438   4.682549
    12  H    1.099259   3.494141   3.482763   3.966464   2.149751
    13  H    2.857027   1.095441   2.787330   2.162098   3.362241
    14  H    3.504773   3.470521   1.097700   2.168915   2.165826
    15  H    2.870128   2.813264   1.098832   2.175193   2.172139
    16  H    3.347407   2.140066   2.143189   1.104811   2.769508
    17  H    2.162239   3.378855   2.156148   2.837923   1.099857
    18  H    2.178762   3.962212   2.173024   3.513692   1.098172
    19  H    2.164763   2.148320   3.335871   2.801479   2.796326
    20  H    2.188091   2.153926   3.933703   3.484666   3.479842
    21  H    2.183592   3.616415   4.185661   4.575052   3.514409
    22  H    2.205314   2.983158   2.955131   3.542366   2.857875
    23  H    2.181868   4.212672   3.641872   4.603232   2.816647
    24  H    4.045572   1.953167   4.051914   2.661758   4.410666
    25  H    4.929385   3.493664   2.571470   2.133982   4.038891
    26  H    5.599290   3.151588   4.381081   2.901146   5.435005
    27  H    5.665469   3.731584   4.047703   2.800470   5.078757
    28  H    6.541654   4.344722   4.679027   3.529402   6.001861
    29  H    5.053245   2.823917   3.866670   2.931078   5.070258
    30  H    4.653046   3.202950   2.997087   2.814880   4.341546
    31  H    6.053925   4.101406   4.171356   3.530621   5.639100
                    6          7          8          9         10
     6  C    0.000000
     7  C    2.562383   0.000000
     8  O    2.434510   4.472265   0.000000
     9  C    3.968377   5.075011   3.041496   0.000000
    10  C    4.690612   6.300021   3.125172   1.538202   0.000000
    11  C    4.499111   5.104184   3.399239   1.537949   2.524192
    12  H    2.146601   2.133745   4.576466   5.491221   6.438810
    13  H    2.159799   2.939453   1.998380   2.861728   3.810313
    14  H    3.926215   4.188641   4.635773   2.747966   3.994683
    15  H    3.366131   2.957146   4.138821   2.805879   4.302782
    16  H    2.747777   4.490692   2.744282   2.157655   2.629994
    17  H    2.803869   3.486035   4.521511   4.238983   5.147418
    18  H    3.474669   2.736719   5.344180   4.733760   5.993117
    19  H    1.102072   3.489683   2.676933   4.245867   4.707453
    20  H    1.097092   2.749752   2.623436   4.764755   5.386849
    21  H    2.800887   1.096490   4.626637   5.778793   6.884289
    22  H    2.874390   1.095661   4.232038   4.494415   5.805008
    23  H    3.512290   1.096650   5.517694   5.792184   7.107815
    24  H    2.601651   4.964364   0.971275   3.311538   3.108474
    25  H    4.668955   5.504717   4.086481   1.100983   2.132908
    26  H    4.493440   6.301700   2.476924   2.183236   1.093561
    27  H    4.819278   6.631156   3.525050   2.189695   1.097680
    28  H    5.736485   7.180902   4.079960   2.181200   1.097060
    29  H    4.319978   5.105726   2.840422   2.185814   2.770982
    30  H    4.477397   4.510594   3.916551   2.200757   3.495878
    31  H    5.580321   6.141027   4.308237   2.176374   2.771135
                   11         12         13         14         15
    11  C    0.000000
    12  H    6.063388   0.000000
    13  H    2.699126   3.863549   0.000000
    14  H    3.650818   4.291490   3.788406   0.000000
    15  H    2.988445   3.880065   2.634620   1.753322   0.000000
    16  H    3.493748   4.057096   3.048276   2.469687   3.058774
    17  H    5.255839   2.388007   4.042010   2.458134   3.066532
    18  H    5.348805   2.536121   4.183009   2.499418   2.485617
    19  H    5.071331   2.393144   3.053069   4.146695   4.033890
    20  H    5.070307   2.539786   2.469773   4.968907   4.193615
    21  H    5.701980   2.479066   3.264765   5.206812   3.937654
    22  H    4.266815   3.073485   2.387682   3.931349   2.380691
    23  H    5.833482   2.464988   3.936479   4.441595   3.318445
    24  H    4.014203   4.649969   2.807146   4.757743   4.594761
    25  H    2.139562   5.879503   3.725216   2.304328   2.828316
    26  H    2.788275   6.452960   3.586092   4.710470   4.743299
    27  H    3.489174   6.424238   4.414898   4.003686   4.692359
    28  H    2.762990   7.460468   4.640562   4.635834   4.958982
    29  H    1.095448   6.103664   2.361620   4.435594   3.584309
    30  H    1.096574   5.750752   2.626099   3.412329   2.356791
    31  H    1.096384   7.129750   3.776220   4.321048   3.845641
                   16         17         18         19         20
    16  H    0.000000
    17  H    2.589472   0.000000
    18  H    3.770351   1.759648   0.000000
    19  H    2.545875   2.635438   3.805702   0.000000
    20  H    3.737155   3.812599   4.328367   1.763203   0.000000
    21  H    5.173366   4.315794   3.756242   3.735623   2.539366
    22  H    4.390115   3.894133   3.079667   3.907277   3.118619
    23  H    5.197090   3.736129   2.543149   4.315448   3.760058
    24  H    2.508347   4.387841   5.500258   2.422372   2.895857
    25  H    2.555798   4.280821   4.653278   4.891093   5.572657
    26  H    2.978330   5.515583   6.413517   4.523001   4.998333
    27  H    2.398972   4.895579   5.989691   4.593235   5.600613
    28  H    3.648894   6.091266   6.822041   5.799075   6.410960
    29  H    3.801107   5.649605   5.831003   4.939887   4.677603
    30  H    3.859252   5.094944   4.832142   5.205595   5.043184
    31  H    4.315406   6.172727   6.242010   6.102266   6.149327
                   21         22         23         24         25
    21  H    0.000000
    22  H    1.766363   0.000000
    23  H    1.771336   1.766564   0.000000
    24  H    5.151701   4.876889   5.969120   0.000000
    25  H    6.342914   4.932461   6.056025   4.268029   0.000000
    26  H    6.723853   5.830765   7.218966   2.487826   3.057547
    27  H    7.251500   6.288863   7.395776   3.207525   2.492843
    28  H    7.787582   6.585206   7.952731   4.127037   2.453054
    29  H    5.505919   4.286555   5.966396   3.594768   3.063838
    30  H    5.170290   3.570017   5.117586   4.609976   2.529072
    31  H    6.751497   5.258105   6.815515   4.864058   2.442952
                   26         27         28         29         30
    26  H    0.000000
    27  H    1.776466   0.000000
    28  H    1.773147   1.769437   0.000000
    29  H    2.586655   3.793196   3.099472   0.000000
    30  H    3.801040   4.355642   3.780040   1.775150   0.000000
    31  H    3.144656   3.772720   2.556964   1.768284   1.766617
                   31
    31  H    0.000000
 Stoichiometry    C10H20O
 Framework group  C1[X(C10H20O)]
 Deg. of freedom    87
 Full point group                 C1      NOp   1
 Largest Abelian subgroup         C1      NOp   1
 Largest concise Abelian subgroup C1      NOp   1
                         Standard orientation:                         
 ---------------------------------------------------------------------
 Center     Atomic      Atomic             Coordinates (Angstroms)
 Number     Number       Type             X           Y           Z
 ---------------------------------------------------------------------
      1          6           0        2.424871    0.122407   -0.266259
      2          6           0        0.014494    0.927983    0.191622
      3          6           0        0.431918   -1.486908   -0.393791
      4          6           0       -0.571031   -0.315530   -0.509702
      5          6           0        1.826143   -1.132248   -0.933527
      6          6           0        1.408405    1.279176   -0.353351
      7          6           0        2.897141   -0.141200    1.173739
      8          8           0       -0.843360    2.073199    0.121959
      9          6           0       -1.994876   -0.737333   -0.038092
     10          6           0       -3.115857    0.088325   -0.692123
     11          6           0       -2.161233   -0.745361    1.490812
     12          1           0        3.312736    0.418005   -0.843050
     13          1           0        0.090135    0.726353    1.265687
     14          1           0        0.036694   -2.352335   -0.941312
     15          1           0        0.506331   -1.802744    0.656039
     16          1           0       -0.646513   -0.067618   -1.583690
     17          1           0        1.748239   -0.952917   -2.015866
     18          1           0        2.505602   -1.986015   -0.809437
     19          1           0        1.293878    1.571322   -1.409806
     20          1           0        1.777868    2.164808    0.178405
     21          1           0        3.336297    0.762985    1.611782
     22          1           0        2.082373   -0.461326    1.832636
     23          1           0        3.661804   -0.927052    1.192912
     24          1           0       -0.938023    2.302834   -0.817020
     25          1           0       -2.123412   -1.774417   -0.384645
     26          1           0       -3.082513    1.128675   -0.356810
     27          1           0       -3.032602    0.075518   -1.786566
     28          1           0       -4.099574   -0.321831   -0.432095
     29          1           0       -2.140425    0.272603    1.894944
     30          1           0       -1.377420   -1.327368    1.990192
     31          1           0       -3.124441   -1.190929    1.766052
 ---------------------------------------------------------------------
 Rotational constants (GHZ):      1.7137889      0.7340259      0.6497992
 Standard basis: 6-31+G(d,p) (6D, 7F)
 There are   309 symmetry adapted basis functions of A   symmetry.
 Integral buffers will be    131072 words long.
 Raffenetti 2 integral format.
 Two-electron integral symmetry is turned on.
   309 basis functions,   492 primitive gaussians,   309 cartesian basis functions
    44 alpha electrons       44 beta electrons
       nuclear repulsion energy       696.1128275093 Hartrees.
 NAtoms=   31 NActive=   31 NUniq=   31 SFac= 1.00D+00 NAtFMM=   60 NAOKFM=F Big=F
 ------------------------------------------------------------------------------
 Polarizable Continuum Model (PCM)
 =================================
 Model                : PCM.
 Atomic radii         : UFF (Universal Force Field).
 Polarization charges : Total charges.
 Charge compensation  : None.
 Solution method      : Matrix inversion.
 Cavity type          : Scaled VdW (van der Waals Surface) (Alpha=1.100).
 Cavity algorithm     : GePol (No added spheres)
                        Default sphere list used, NSphG=   31.
                        Lebedev-Laikov grids with approx.  5.0 points / Ang**2.
                        Smoothing algorithm: Karplus/York (Gamma=1.0000).
                        Polarization charges: spherical gaussians, with
                                              point-specific exponents (IZeta= 3).
                        Self-potential: point-specific (ISelfS= 7).
                        Self-field    : sphere-specific E.n sum rule (ISelfD= 2).
 Solvent              : Benzene, Eps=   2.270600 Eps(inf)=   2.253301
 ------------------------------------------------------------------------------
 One-electron integrals computed using PRISM.
 NBasis=   309 RedAO= T  NBF=   309
 NBsUse=   309 1.00D-06 NBFU=   309
 Harris functional with IExCor=  908 diagonalized for initial guess.
 ExpMin= 4.38D-02 ExpMax= 5.48D+03 ExpMxC= 8.25D+02 IAcc=2 IRadAn=         4 AccDes= 0.00D+00
 HarFok:  IExCor=  908 AccDes= 0.00D+00 IRadAn=         4 IDoV= 1
 ScaDFX=  1.000000  1.000000  1.000000  1.000000
 FoFCou: FMM=F IPFlag=           0 FMFlag=      100000 FMFlg1=           0
         NFxFlg=           0 DoJE=T BraDBF=F KetDBF=T FulRan=T
         Omega=  0.000000  0.000000  1.000000  0.000000  0.000000 ICntrl=     500 IOpCl=  0
         NMat0=    1 NMatS0=    1 NMatT0=    0 NMatD0=    1 NMtDS0=    0 NMtDT0=    0
         I1Cent=           4 NGrid=           0.
 Petite list used in FoFCou.
 Initial guess orbital symmetries:
       Occupied  (A) (A) (A) (A) (A) (A) (A) (A) (A) (A) (A) (A)
                 (A) (A) (A) (A) (A) (A) (A) (A) (A) (A) (A) (A)
                 (A) (A) (A) (A) (A) (A) (A) (A) (A) (A) (A) (A)
                 (A) (A) (A) (A) (A) (A) (A) (A)
       Virtual   (A) (A) (A) (A) (A) (A) (A) (A) (A) (A) (A) (A)
                 (A) (A) (A) (A) (A) (A) (A) (A) (A) (A) (A) (A)
                 (A) (A) (A) (A) (A) (A) (A) (A) (A) (A) (A) (A)
                 (A) (A) (A) (A) (A) (A) (A) (A) (A) (A) (A) (A)
                 (A) (A) (A) (A) (A) (A) (A) (A) (A) (A) (A) (A)
                 (A) (A) (A) (A) (A) (A) (A) (A) (A) (A) (A) (A)
                 (A) (A) (A) (A) (A) (A) (A) (A) (A) (A) (A) (A)
                 (A) (A) (A) (A) (A) (A) (A) (A) (A) (A) (A) (A)
                 (A) (A) (A) (A) (A) (A) (A) (A) (A) (A) (A) (A)
                 (A) (A) (A) (A) (A) (A) (A) (A) (A) (A) (A) (A)
                 (A) (A) (A) (A) (A) (A) (A) (A) (A) (A) (A) (A)
                 (A) (A) (A) (A) (A) (A) (A) (A) (A) (A) (A) (A)
                 (A) (A) (A) (A) (A) (A) (A) (A) (A) (A) (A) (A)
                 (A) (A) (A) (A) (A) (A) (A) (A) (A) (A) (A) (A)
                 (A) (A) (A) (A) (A) (A) (A) (A) (A) (A) (A) (A)
                 (A) (A) (A) (A) (A) (A) (A) (A) (A) (A) (A) (A)
                 (A) (A) (A) (A) (A) (A) (A) (A) (A) (A) (A) (A)
                 (A) (A) (A) (A) (A) (A) (A) (A) (A) (A) (A) (A)
                 (A) (A) (A) (A) (A) (A) (A) (A) (A) (A) (A) (A)
                 (A) (A) (A) (A) (A) (A) (A) (A) (A) (A) (A) (A)
                 (A) (A) (A) (A) (A) (A) (A) (A) (A) (A) (A) (A)
                 (A) (A) (A) (A) (A) (A) (A) (A) (A) (A) (A) (A)
                 (A)
 The electronic state of the initial guess is 1-A.
 Requested convergence on RMS density matrix=1.00D-08 within 128 cycles.
 Requested convergence on MAX density matrix=1.00D-06.
 Requested convergence on             energy=1.00D-06.
 No special actions if energy rises.
 Error on total polarization charges =  0.00931
 SCF Done:  E(RmPW1PW91) =  -468.280717365     A.U. after   12 cycles
             Convg  =    0.7077D-08             -V/T =  2.0099
 Range of M.O.s used for correlation:     1   309
 NBasis=   309 NAE=    44 NBE=    44 NFC=     0 NFV=     0
 NROrb=    309 NOA=    44 NOB=    44 NVA=   265 NVB=   265

 **** Warning!!: The largest alpha MO coefficient is  0.82212693D+02

 NEqPCM:  Using equilibrium solvation (IEInf=0, Eps=   2.2706, EpsInf=   2.2533)
          Differentiating once with respect to magnetic field using GIAOs.
          Electric field/nuclear overlap derivatives assumed to be zero.
 FoFCou: FMM=F IPFlag=           0 FMFlag=    10101102 FMFlg1=           0
         NFxFlg=    40000000 DoJE=F BraDBF=F KetDBF=T FulRan=T
         Omega=  0.000000  0.000000  1.000000  0.000000  0.000000 ICntrl=    6100 IOpCl=  0
         NMat0=    1 NMatS0=    1 NMatT0=    0 NMatD0=    1 NMtDS0=    0 NMtDT0=    0
         I1Cent=           7 NGrid=        1897.
 Symmetry not used in FoFCou.
          There are     3 degrees of freedom in the 1st order CPHF.  IDoFFX=0.
      3 vectors produced by pass  0 Test12= 3.89D-13 3.33D-08 XBig12= 3.70D+01 1.29D+00.
 AX will form     3 AO Fock derivatives at one time.
      3 vectors produced by pass  1 Test12= 3.89D-13 3.33D-08 XBig12= 9.03D-02 6.00D-02.
      3 vectors produced by pass  2 Test12= 3.89D-13 3.33D-08 XBig12= 2.41D-04 4.63D-03.
      3 vectors produced by pass  3 Test12= 3.89D-13 3.33D-08 XBig12= 7.42D-07 1.52D-04.
      3 vectors produced by pass  4 Test12= 3.89D-13 3.33D-08 XBig12= 1.33D-09 6.36D-06.
      3 vectors produced by pass  5 Test12= 3.89D-13 3.33D-08 XBig12= 3.57D-12 3.36D-07.
 Inverted reduced A of dimension    18 with in-core refinement.
 Calculating GIAO nuclear magnetic shielding tensors.
 SCF GIAO Magnetic shielding tensor (ppm):
      1  C    Isotropic =   163.1526   Anisotropy =     4.2336
   XX=   164.9458   YX=    -0.2120   ZX=     1.7779
   XY=     1.2844   YY=   165.3311   ZY=    -0.2385
   XZ=     0.8495   YZ=     1.6014   ZZ=   159.1809
   Eigenvalues:   158.8481   164.6347   165.9750
      2  C    Isotropic =   126.1807   Anisotropy =    61.2832
   XX=   130.4750   YX=   -17.6953   ZX=     7.2707
   XY=   -24.0788   YY=   153.5683   ZY=    -3.1797
   XZ=    10.8107   YZ=    -7.2688   ZZ=    94.4989
   Eigenvalues:    92.3533   119.1526   167.0362
      3  C    Isotropic =   166.4524   Anisotropy =    28.1870
   XX=   180.4398   YX=    -4.7157   ZX=    -5.9837
   XY=    -7.6199   YY=   175.6783   ZY=     3.7631
   XZ=    -0.8097   YZ=     3.6652   ZZ=   143.2391
   Eigenvalues:   142.6224   171.4910   185.2437
      4  C    Isotropic =   142.3141   Anisotropy =    12.7497
   XX=   143.5465   YX=     5.4751   ZX=    -1.3337
   XY=     1.6151   YY=   136.8397   ZY=    -4.0598
   XZ=    -2.3870   YZ=    -7.7346   ZZ=   146.5561
   Eigenvalues:   133.4422   142.6861   150.8138
      5  C    Isotropic =   162.5916   Anisotropy =    12.0433
   XX=   162.7851   YX=     3.0870   ZX=     4.6304
   XY=     2.9491   YY=   164.1210   ZY=     7.8947
   XZ=     4.2035   YZ=     1.1536   ZZ=   160.8687
   Eigenvalues:   156.7302   160.4241   170.6205
      6  C    Isotropic =   150.9923   Anisotropy =    27.9618
   XX=   166.4944   YX=   -12.5745   ZX=     2.0811
   XY=    -3.8088   YY=   148.2267   ZY=    -9.6202
   XZ=    -5.5396   YZ=    -1.3251   ZZ=   138.2557
   Eigenvalues:   134.9998   148.3435   169.6335
      7  C    Isotropic =   176.7478   Anisotropy =    30.0352
   XX=   166.5564   YX=    -6.7185   ZX=    14.6839
   XY=    -7.5558   YY=   176.8357   ZY=    -0.8360
   XZ=    18.1327   YZ=     0.0041   ZZ=   186.8514
   Eigenvalues:   155.6628   177.8093   196.7713
      8  O    Isotropic =   265.2671   Anisotropy =    43.2027
   XX=   252.5313   YX=    -8.6797   ZX=     4.0225
   XY=   -16.0784   YY=   260.4774   ZY=    -3.8602
   XZ=    14.4695   YZ=   -23.8338   ZZ=   282.7926
   Eigenvalues:   243.4868   258.2456   294.0689
      9  C    Isotropic =   158.1698   Anisotropy =    22.3575
   XX=   171.2974   YX=     3.4469   ZX=    -2.6282
   XY=     4.1079   YY=   157.4178   ZY=     0.2579
   XZ=    -7.7131   YZ=     2.3947   ZZ=   145.7941
   Eigenvalues:   144.4585   156.9761   173.0748
     10  C    Isotropic =   170.2054   Anisotropy =    37.1559
   XX=   183.1633   YX=   -10.7270   ZX=    11.5475
   XY=   -13.8385   YY=   158.9484   ZY=   -12.8257
   XZ=     7.1027   YZ=    -9.9453   ZZ=   168.5047
   Eigenvalues:   150.3352   165.3051   194.9761
     11  C    Isotropic =   179.1250   Anisotropy =    23.8864
   XX=   173.0430   YX=     0.0501   ZX=    -2.1929
   XY=    -1.4529   YY=   169.4939   ZY=    -1.4070
   XZ=     2.5444   YZ=    -3.2115   ZZ=   194.8380
   Eigenvalues:   169.1650   173.1607   195.0492
     12  H    Isotropic =    29.6464   Anisotropy =    10.0313
   XX=    33.7069   YX=     2.1775   ZX=    -3.5556
   XY=     2.2229   YY=    26.2744   ZY=    -1.4042
   XZ=    -3.6824   YZ=    -1.3974   ZZ=    28.9578
   Eigenvalues:    25.5785    27.0267    36.3339
     13  H    Isotropic =    27.7639   Anisotropy =     3.1544
   XX=    29.7267   YX=    -0.6765   ZX=     0.6471
   XY=    -0.7711   YY=    25.9304   ZY=    -1.1294
   XZ=    -0.5854   YZ=     0.1202   ZZ=    27.6346
   Eigenvalues:    25.6741    27.7508    29.8668
     14  H    Isotropic =    30.3865   Anisotropy =     9.0938
   XX=    30.3549   YX=     1.2560   ZX=     0.0903
   XY=     2.0994   YY=    34.3034   ZY=     4.4126
   XZ=    -0.4948   YZ=     3.8812   ZZ=    26.5011
   Eigenvalues:    24.5791    30.1312    36.4490
     15  H    Isotropic =    29.9202   Anisotropy =     4.9070
   XX=    30.7721   YX=    -0.7008   ZX=    -0.6630
   XY=    -0.0445   YY=    28.9786   ZY=    -4.1925
   XZ=    -0.2926   YZ=    -3.1182   ZZ=    30.0100
   Eigenvalues:    25.7325    30.8365    33.1915
     16  H    Isotropic =    30.6038   Anisotropy =     3.5668
   XX=    32.3764   YX=    -0.7158   ZX=     0.3193
   XY=    -0.1822   YY=    27.1916   ZY=    -0.6047
   XZ=     0.7644   YZ=    -0.9422   ZZ=    32.2435
   Eigenvalues:    27.0507    31.7791    32.9817
     17  H    Isotropic =    30.0608   Anisotropy =     8.8377
   XX=    28.3066   YX=     0.5018   ZX=    -2.0695
   XY=     0.4842   YY=    26.6944   ZY=     2.4542
   XZ=    -1.4497   YZ=     1.4498   ZZ=    35.1813
   Eigenvalues:    25.9195    28.3102    35.9526
     18  H    Isotropic =    30.1705   Anisotropy =     9.7796
   XX=    31.9261   YX=    -4.0045   ZX=    -0.8014
   XY=    -4.3728   YY=    32.4151   ZY=     1.7276
   XZ=    -0.6698   YZ=     1.9451   ZZ=    26.1704
   Eigenvalues:    25.6306    28.1908    36.6903
     19  H    Isotropic =    30.4639   Anisotropy =     6.2727
   XX=    29.5332   YX=     0.1957   ZX=    -0.6172
   XY=    -0.6519   YY=    30.7112   ZY=    -4.3225
   XZ=    -0.7872   YZ=    -3.0476   ZZ=    31.1475
   Eigenvalues:    27.0666    29.6795    34.6457
     20  H    Isotropic =    29.7250   Anisotropy =     7.1145
   XX=    29.8449   YX=     2.0424   ZX=     1.1595
   XY=     1.8431   YY=    33.0518   ZY=     2.0340
   XZ=     1.4940   YZ=     1.1792   ZZ=    26.2784
   Eigenvalues:    25.7029    29.0042    34.4680
     21  H    Isotropic =    30.6513   Anisotropy =    10.2628
   XX=    30.3006   YX=     2.8505   ZX=     4.2195
   XY=     2.6503   YY=    30.9184   ZY=     2.4684
   XZ=     4.2873   YZ=     3.9604   ZZ=    30.7349
   Eigenvalues:    26.2400    28.2207    37.4932
     22  H    Isotropic =    30.2381   Anisotropy =     5.4401
   XX=    31.4439   YX=     0.9035   ZX=     0.3841
   XY=     1.0914   YY=    26.1738   ZY=    -2.1294
   XZ=    -1.0670   YZ=    -2.1684   ZZ=    33.0966
   Eigenvalues:    25.4355    31.4140    33.8648
     23  H    Isotropic =    30.7930   Anisotropy =    11.0509
   XX=    33.3585   YX=    -4.6345   ZX=     2.9931
   XY=    -4.9872   YY=    30.3495   ZY=    -0.7557
   XZ=     3.5604   YZ=    -1.9935   ZZ=    28.6709
   Eigenvalues:    26.2702    27.9485    38.1602
     24  H    Isotropic =    31.7786   Anisotropy =    13.5755
   XX=    27.7076   YX=    -3.3402   ZX=     2.6348
   XY=    -3.4210   YY=    31.4424   ZY=    -5.7228
   XZ=     2.4948   YZ=    -4.8333   ZZ=    36.1859
   Eigenvalues:    25.6762    28.8307    40.8290
     25  H    Isotropic =    30.1545   Anisotropy =     6.6386
   XX=    29.9564   YX=     1.3829   ZX=     0.6817
   XY=     0.9942   YY=    33.2754   ZY=     2.7410
   XZ=     0.5027   YZ=     2.3462   ZZ=    27.2316
   Eigenvalues:    26.2971    29.5861    34.5802
     26  H    Isotropic =    29.9348   Anisotropy =     5.6501
   XX=    31.1876   YX=    -1.2945   ZX=     1.0575
   XY=    -0.8765   YY=    33.2313   ZY=     0.8085
   XZ=     1.7944   YZ=     0.2062   ZZ=    25.3856
   Eigenvalues:    24.9865    31.1164    33.7016
     27  H    Isotropic =    30.6252   Anisotropy =     9.2087
   XX=    30.1343   YX=    -0.7598   ZX=     3.8171
   XY=    -0.3524   YY=    26.5601   ZY=    -1.5575
   XZ=     2.3325   YZ=    -0.4539   ZZ=    35.1812
   Eigenvalues:    26.4289    28.6823    36.7644
     28  H    Isotropic =    30.6280   Anisotropy =    11.0772
   XX=    37.7837   YX=     2.0725   ZX=     0.3223
   XY=     0.8919   YY=    26.8197   ZY=    -0.7501
   XZ=     1.0884   YZ=    -0.9766   ZZ=    27.2805
   Eigenvalues:    25.9379    27.9332    38.0128
     29  H    Isotropic =    30.4666   Anisotropy =     6.9384
   XX=    28.0195   YX=     0.7106   ZX=    -1.9687
   XY=     0.7988   YY=    31.5817   ZY=     2.8630
   XZ=    -2.0729   YZ=     3.6728   ZZ=    31.7987
   Eigenvalues:    26.2074    30.1003    35.0923
     30  H    Isotropic =    30.5123   Anisotropy =     8.3969
   XX=    30.7609   YX=    -2.3318   ZX=     0.4499
   XY=    -2.1895   YY=    28.0303   ZY=    -4.1124
   XZ=     1.7790   YZ=    -4.3937   ZZ=    32.7457
   Eigenvalues:    25.1553    30.2714    36.1103
     31  H    Isotropic =    30.7457   Anisotropy =    10.8450
   XX=    33.4614   YX=     3.5760   ZX=    -3.4421
   XY=     3.4118   YY=    28.0649   ZY=    -2.5702
   XZ=    -4.1248   YZ=    -2.4366   ZZ=    30.7107
   Eigenvalues:    26.2001    28.0613    37.9757
 End of Minotr Frequency-dependent properties file   721 does not exist.
 End of Minotr Frequency-dependent properties file   722 does not exist.

 **********************************************************************

            Population analysis using the SCF density.

 **********************************************************************

 Orbital symmetries:
       Occupied  (A) (A) (A) (A) (A) (A) (A) (A) (A) (A) (A) (A)
                 (A) (A) (A) (A) (A) (A) (A) (A) (A) (A) (A) (A)
                 (A) (A) (A) (A) (A) (A) (A) (A) (A) (A) (A) (A)
                 (A) (A) (A) (A) (A) (A) (A) (A)
       Virtual   (A) (A) (A) (A) (A) (A) (A) (A) (A) (A) (A) (A)
                 (A) (A) (A) (A) (A) (A) (A) (A) (A) (A) (A) (A)
                 (A) (A) (A) (A) (A) (A) (A) (A) (A) (A) (A) (A)
                 (A) (A) (A) (A) (A) (A) (A) (A) (A) (A) (A) (A)
                 (A) (A) (A) (A) (A) (A) (A) (A) (A) (A) (A) (A)
                 (A) (A) (A) (A) (A) (A) (A) (A) (A) (A) (A) (A)
                 (A) (A) (A) (A) (A) (A) (A) (A) (A) (A) (A) (A)
                 (A) (A) (A) (A) (A) (A) (A) (A) (A) (A) (A) (A)
                 (A) (A) (A) (A) (A) (A) (A) (A) (A) (A) (A) (A)
                 (A) (A) (A) (A) (A) (A) (A) (A) (A) (A) (A) (A)
                 (A) (A) (A) (A) (A) (A) (A) (A) (A) (A) (A) (A)
                 (A) (A) (A) (A) (A) (A) (A) (A) (A) (A) (A) (A)
                 (A) (A) (A) (A) (A) (A) (A) (A) (A) (A) (A) (A)
                 (A) (A) (A) (A) (A) (A) (A) (A) (A) (A) (A) (A)
                 (A) (A) (A) (A) (A) (A) (A) (A) (A) (A) (A) (A)
                 (A) (A) (A) (A) (A) (A) (A) (A) (A) (A) (A) (A)
                 (A) (A) (A) (A) (A) (A) (A) (A) (A) (A) (A) (A)
                 (A) (A) (A) (A) (A) (A) (A) (A) (A) (A) (A) (A)
                 (A) (A) (A) (A) (A) (A) (A) (A) (A) (A) (A) (A)
                 (A) (A) (A) (A) (A) (A) (A) (A) (A) (A) (A) (A)
                 (A) (A) (A) (A) (A) (A) (A) (A) (A) (A) (A) (A)
                 (A) (A) (A) (A) (A) (A) (A) (A) (A) (A) (A) (A)
                 (A)
 The electronic state is 1-A.
 Alpha  occ. eigenvalues --  -19.24413 -10.29286 -10.25303 -10.24961 -10.24892
 Alpha  occ. eigenvalues --  -10.24282 -10.24175 -10.24071 -10.23440 -10.22921
 Alpha  occ. eigenvalues --  -10.22680  -1.04929  -0.86115  -0.82051  -0.76489
 Alpha  occ. eigenvalues --   -0.75239  -0.69896  -0.69805  -0.63649  -0.62684
 Alpha  occ. eigenvalues --   -0.57471  -0.56173  -0.51034  -0.47817  -0.47084
 Alpha  occ. eigenvalues --   -0.45800  -0.45291  -0.44764  -0.42532  -0.41596
 Alpha  occ. eigenvalues --   -0.40545  -0.39866  -0.38862  -0.38464  -0.37620
 Alpha  occ. eigenvalues --   -0.36087  -0.35067  -0.34557  -0.33524  -0.33205
 Alpha  occ. eigenvalues --   -0.32088  -0.31793  -0.30425  -0.27210
 Alpha virt. eigenvalues --    0.00761   0.01647   0.01801   0.02306   0.03962
 Alpha virt. eigenvalues --    0.04289   0.04500   0.05052   0.05602   0.06082
 Alpha virt. eigenvalues --    0.07222   0.07706   0.08180   0.08510   0.08988
 Alpha virt. eigenvalues --    0.09392   0.10036   0.10833   0.11559   0.11798
 Alpha virt. eigenvalues --    0.12396   0.12654   0.13387   0.13876   0.14473
 Alpha virt. eigenvalues --    0.15117   0.16144   0.16572   0.16685   0.16971
 Alpha virt. eigenvalues --    0.17445   0.18295   0.18724   0.19157   0.19831
 Alpha virt. eigenvalues --    0.20284   0.20687   0.21040   0.21798   0.22839
 Alpha virt. eigenvalues --    0.23001   0.23438   0.23629   0.23856   0.24686
 Alpha virt. eigenvalues --    0.24763   0.25670   0.26348   0.26670   0.27279
 Alpha virt. eigenvalues --    0.27577   0.28526   0.28829   0.29361   0.30125
 Alpha virt. eigenvalues --    0.30752   0.31861   0.32757   0.32980   0.34034
 Alpha virt. eigenvalues --    0.34330   0.35038   0.35266   0.35812   0.37067
 Alpha virt. eigenvalues --    0.37720   0.38467   0.39140   0.40159   0.41221
 Alpha virt. eigenvalues --    0.43159   0.45082   0.45669   0.49701   0.53507
 Alpha virt. eigenvalues --    0.62195   0.63631   0.65255   0.65890   0.66644
 Alpha virt. eigenvalues --    0.67948   0.68760   0.70646   0.71633   0.72053
 Alpha virt. eigenvalues --    0.73891   0.74945   0.75748   0.76885   0.76991
 Alpha virt. eigenvalues --    0.77799   0.80428   0.81718   0.82110   0.83887
 Alpha virt. eigenvalues --    0.86862   0.87950   0.88650   0.91578   0.93318
 Alpha virt. eigenvalues --    0.95504   0.97610   0.97864   0.99401   0.99701
 Alpha virt. eigenvalues --    1.01089   1.01816   1.03071   1.04253   1.05162
 Alpha virt. eigenvalues --    1.05552   1.08150   1.09386   1.10455   1.11865
 Alpha virt. eigenvalues --    1.13040   1.13521   1.14667   1.15429   1.16342
 Alpha virt. eigenvalues --    1.17496   1.18188   1.19262   1.20083   1.21894
 Alpha virt. eigenvalues --    1.24526   1.26035   1.27404   1.29682   1.33798
 Alpha virt. eigenvalues --    1.35815   1.38422   1.40161   1.42643   1.44688
 Alpha virt. eigenvalues --    1.47127   1.50826   1.52048   1.54610   1.55801
 Alpha virt. eigenvalues --    1.59422   1.60815   1.61637   1.64618   1.69637
 Alpha virt. eigenvalues --    1.71678   1.75081   1.77149   1.78431   1.79605
 Alpha virt. eigenvalues --    1.82540   1.83990   1.85632   1.86596   1.87288
 Alpha virt. eigenvalues --    1.88700   1.89460   1.90649   1.93333   1.94330
 Alpha virt. eigenvalues --    1.94508   1.96386   1.98176   1.99954   2.03107
 Alpha virt. eigenvalues --    2.05350   2.06047   2.07133   2.07876   2.09172
 Alpha virt. eigenvalues --    2.10823   2.12969   2.14138   2.14781   2.15841
 Alpha virt. eigenvalues --    2.16642   2.17121   2.18412   2.18828   2.19127
 Alpha virt. eigenvalues --    2.20162   2.22122   2.23064   2.26060   2.30440
 Alpha virt. eigenvalues --    2.32547   2.34008   2.35111   2.37665   2.38858
 Alpha virt. eigenvalues --    2.39204   2.40769   2.41577   2.42495   2.45023
 Alpha virt. eigenvalues --    2.47636   2.48871   2.51930   2.54237   2.58096
 Alpha virt. eigenvalues --    2.58519   2.59689   2.61411   2.63127   2.65822
 Alpha virt. eigenvalues --    2.67284   2.68515   2.70161   2.70533   2.71893
 Alpha virt. eigenvalues --    2.73333   2.74456   2.76625   2.77239   2.78105
 Alpha virt. eigenvalues --    2.78885   2.80888   2.82267   2.84048   2.85772
 Alpha virt. eigenvalues --    2.87042   2.90055   2.91009   2.91562   2.92524
 Alpha virt. eigenvalues --    2.93592   2.94393   2.96110   2.97016   2.98535
 Alpha virt. eigenvalues --    3.00946   3.04114   3.07753   3.14951   3.29677
 Alpha virt. eigenvalues --    3.30391   3.31361   3.35869   3.36772   3.38137
 Alpha virt. eigenvalues --    3.41291   3.42098   3.46198   3.48635   3.50488
 Alpha virt. eigenvalues --    3.51780   3.53225   3.53927   3.55696   3.56237
 Alpha virt. eigenvalues --    3.58249   3.58947   3.61153   3.65504   4.37603
 Alpha virt. eigenvalues --    4.45445   4.50029   4.51759   4.54878   4.64326
 Alpha virt. eigenvalues --    4.66514   4.76673   4.82302   4.87156   4.89521
          Condensed to atoms (all electrons):
              1          2          3          4          5          6
     1  C    6.188600  -0.169384  -0.358342   0.035151   0.014624  -0.195446
     2  C   -0.169384   7.566528  -0.680619  -0.419051  -0.017713  -0.752893
     3  C   -0.358342  -0.680619   6.883269  -0.377193  -0.118720   0.187337
     4  C    0.035151  -0.419051  -0.377193   7.526216  -0.195911  -0.164996
     5  C    0.014624  -0.017713  -0.118720  -0.195911   6.081761   0.269169
     6  C   -0.195446  -0.752893   0.187337  -0.164996   0.269169   6.682385
     7  C    0.205835   0.071357  -0.080965   0.088783  -0.097529  -0.168177
     8  O   -0.018280   0.133849   0.055363  -0.083608   0.015272   0.042803
     9  C    0.024470  -0.085145   0.263789  -1.194643   0.026661   0.253395
    10  C    0.008694   0.002153  -0.065095   0.411841  -0.078428  -0.106451
    11  C    0.023724  -0.033375   0.029120   0.052003  -0.023102  -0.078948
    12  H    0.262665   0.032782   0.040597  -0.008051  -0.019901   0.002665
    13  H    0.037868   0.514772  -0.014255  -0.012474  -0.032969  -0.143637
    14  H    0.040576   0.030967   0.296851  -0.055852   0.036967  -0.004975
    15  H    0.024221   0.014304   0.407201  -0.047552  -0.087708  -0.040584
    16  H    0.029021   0.072167  -0.026919   0.317510  -0.048504  -0.080012
    17  H    0.015500  -0.003801  -0.061659   0.047920   0.352098  -0.052778
    18  H   -0.095980  -0.008447  -0.086405   0.042378   0.433750   0.041187
    19  H    0.019750   0.038069  -0.015627   0.016228  -0.054192   0.301273
    20  H   -0.062416  -0.127913  -0.006698   0.031396   0.037005   0.461253
    21  H   -0.086470   0.004230  -0.009969  -0.007574   0.034695   0.003615
    22  H   -0.071948   0.016273  -0.000223   0.014262  -0.012110  -0.013803
    23  H   -0.093151  -0.014371   0.009501  -0.004970   0.000708   0.034158
    24  H    0.006007   0.140531  -0.012793  -0.004515  -0.007084  -0.097271
    25  H    0.003760  -0.007667   0.000458  -0.050897  -0.000383  -0.008916
    26  H    0.000960  -0.020179  -0.000851   0.023567  -0.001025  -0.002527
    27  H   -0.000566   0.020700  -0.006173   0.009466  -0.000678  -0.001291
    28  H   -0.000127   0.003497  -0.005357   0.031981  -0.000022  -0.000313
    29  H    0.000777  -0.004882  -0.001665   0.014492  -0.000018  -0.006098
    30  H   -0.003443  -0.018355   0.005058  -0.007098   0.006678   0.010779
    31  H    0.000020  -0.005920   0.006020   0.035786   0.000339   0.000258
              7          8          9         10         11         12
     1  C    0.205835  -0.018280   0.024470   0.008694   0.023724   0.262665
     2  C    0.071357   0.133849  -0.085145   0.002153  -0.033375   0.032782
     3  C   -0.080965   0.055363   0.263789  -0.065095   0.029120   0.040597
     4  C    0.088783  -0.083608  -1.194643   0.411841   0.052003  -0.008051
     5  C   -0.097529   0.015272   0.026661  -0.078428  -0.023102  -0.019901
     6  C   -0.168177   0.042803   0.253395  -0.106451  -0.078948   0.002665
     7  C    5.369438  -0.005646  -0.021324   0.004711   0.006760  -0.020486
     8  O   -0.005646   8.237895   0.005797  -0.013537  -0.039038  -0.000540
     9  C   -0.021324   0.005797   7.697604  -0.684450  -0.207448  -0.000246
    10  C    0.004711  -0.013537  -0.684450   5.794352   0.020201   0.000216
    11  C    0.006760  -0.039038  -0.207448   0.020201   5.519313   0.000003
    12  H   -0.020486  -0.000540  -0.000246   0.000216   0.000003   0.574498
    13  H    0.015644  -0.066408  -0.072948   0.018187   0.024001  -0.000154
    14  H   -0.000648  -0.000303  -0.010684  -0.011615   0.005520  -0.000135
    15  H    0.013596  -0.000623   0.026472   0.005017  -0.003430  -0.000087
    16  H    0.004729  -0.014906  -0.014347   0.014078   0.008163  -0.000097
    17  H    0.014207  -0.000224   0.005547   0.002139  -0.000080  -0.006040
    18  H    0.005117   0.000075  -0.007920   0.000282  -0.000660  -0.001851
    19  H    0.015058  -0.012592  -0.000750   0.003406   0.001579  -0.006134
    20  H   -0.003996   0.000288  -0.000040  -0.001364   0.000116  -0.002120
    21  H    0.420233  -0.000144  -0.000111  -0.000178  -0.000169  -0.003673
    22  H    0.422995  -0.000200  -0.001592   0.000172   0.001044   0.004805
    23  H    0.426567   0.000036  -0.000104  -0.000017  -0.000244  -0.003991
    24  H    0.002655   0.235333  -0.070244   0.029925   0.009326  -0.000012
    25  H   -0.000191   0.000477   0.309529  -0.013940   0.034234   0.000000
    26  H   -0.000028   0.000275  -0.134020   0.477725   0.009459   0.000000
    27  H    0.000073  -0.002292  -0.108755   0.443867   0.001619   0.000000
    28  H   -0.000013   0.000941  -0.124888   0.449249   0.001186   0.000000
    29  H   -0.000441   0.003270  -0.131539   0.000155   0.477482   0.000000
    30  H    0.000591  -0.000022  -0.023178  -0.006695   0.393258   0.000000
    31  H   -0.000108   0.000339  -0.105462  -0.001282   0.428234   0.000000
             13         14         15         16         17         18
     1  C    0.037868   0.040576   0.024221   0.029021   0.015500  -0.095980
     2  C    0.514772   0.030967   0.014304   0.072167  -0.003801  -0.008447
     3  C   -0.014255   0.296851   0.407201  -0.026919  -0.061659  -0.086405
     4  C   -0.012474  -0.055852  -0.047552   0.317510   0.047920   0.042378
     5  C   -0.032969   0.036967  -0.087708  -0.048504   0.352098   0.433750
     6  C   -0.143637  -0.004975  -0.040584  -0.080012  -0.052778   0.041187
     7  C    0.015644  -0.000648   0.013596   0.004729   0.014207   0.005117
     8  O   -0.066408  -0.000303  -0.000623  -0.014906  -0.000224   0.000075
     9  C   -0.072948  -0.010684   0.026472  -0.014347   0.005547  -0.007920
    10  C    0.018187  -0.011615   0.005017   0.014078   0.002139   0.000282
    11  C    0.024001   0.005520  -0.003430   0.008163  -0.000080  -0.000660
    12  H   -0.000154  -0.000135  -0.000087  -0.000097  -0.006040  -0.001851
    13  H    0.559047  -0.000103   0.002180   0.004797   0.000063   0.000007
    14  H   -0.000103   0.551142  -0.029865  -0.004475  -0.004892  -0.002525
    15  H    0.002180  -0.029865   0.547846   0.004892   0.004577  -0.003370
    16  H    0.004797  -0.004475   0.004892   0.578021   0.002862   0.000036
    17  H    0.000063  -0.004892   0.004577   0.002862   0.547870  -0.027405
    18  H    0.000007  -0.002525  -0.003370   0.000036  -0.027405   0.550928
    19  H    0.004551  -0.000045   0.000081   0.003023   0.002434  -0.000008
    20  H   -0.005224   0.000010  -0.000017  -0.000040  -0.000045  -0.000127
    21  H    0.000103   0.000002  -0.000034   0.000001  -0.000130   0.000067
    22  H   -0.002197  -0.000036  -0.001310  -0.000041  -0.000087  -0.000064
    23  H   -0.000011  -0.000018   0.000172   0.000001   0.000063   0.002906
    24  H    0.008147  -0.000008   0.000011   0.004443   0.000014   0.000000
    25  H    0.000063   0.004125  -0.000608  -0.001477   0.000001  -0.000014
    26  H    0.000045  -0.000001  -0.000004  -0.000237   0.000000   0.000000
    27  H   -0.000006   0.000036   0.000000   0.003384   0.000001   0.000000
    28  H    0.000005  -0.000011   0.000002   0.000196   0.000000   0.000000
    29  H   -0.001240   0.000000   0.000060  -0.000034   0.000000   0.000000
    30  H   -0.000311   0.000100   0.001142  -0.000037  -0.000001   0.000005
    31  H    0.000104  -0.000012  -0.000067  -0.000087   0.000000   0.000000
             19         20         21         22         23         24
     1  C    0.019750  -0.062416  -0.086470  -0.071948  -0.093151   0.006007
     2  C    0.038069  -0.127913   0.004230   0.016273  -0.014371   0.140531
     3  C   -0.015627  -0.006698  -0.009969  -0.000223   0.009501  -0.012793
     4  C    0.016228   0.031396  -0.007574   0.014262  -0.004970  -0.004515
     5  C   -0.054192   0.037005   0.034695  -0.012110   0.000708  -0.007084
     6  C    0.301273   0.461253   0.003615  -0.013803   0.034158  -0.097271
     7  C    0.015058  -0.003996   0.420233   0.422995   0.426567   0.002655
     8  O   -0.012592   0.000288  -0.000144  -0.000200   0.000036   0.235333
     9  C   -0.000750  -0.000040  -0.000111  -0.001592  -0.000104  -0.070244
    10  C    0.003406  -0.001364  -0.000178   0.000172  -0.000017   0.029925
    11  C    0.001579   0.000116  -0.000169   0.001044  -0.000244   0.009326
    12  H   -0.006134  -0.002120  -0.003673   0.004805  -0.003991  -0.000012
    13  H    0.004551  -0.005224   0.000103  -0.002197  -0.000011   0.008147
    14  H   -0.000045   0.000010   0.000002  -0.000036  -0.000018  -0.000008
    15  H    0.000081  -0.000017  -0.000034  -0.001310   0.000172   0.000011
    16  H    0.003023  -0.000040   0.000001  -0.000041   0.000001   0.004443
    17  H    0.002434  -0.000045  -0.000130  -0.000087   0.000063   0.000014
    18  H   -0.000008  -0.000127   0.000067  -0.000064   0.002906   0.000000
    19  H    0.552710  -0.029018   0.000055  -0.000112  -0.000128   0.004568
    20  H   -0.029018   0.532728   0.002802  -0.000090   0.000063  -0.000900
    21  H    0.000055   0.002802   0.529113  -0.027652  -0.024596   0.000000
    22  H   -0.000112  -0.000090  -0.027652   0.537045  -0.028009  -0.000006
    23  H   -0.000128   0.000063  -0.024596  -0.028009   0.530620   0.000000
    24  H    0.004568  -0.000900   0.000000  -0.000006   0.000000   0.400348
    25  H    0.000000   0.000002   0.000000   0.000000   0.000000  -0.000021
    26  H    0.000007   0.000003   0.000000   0.000000   0.000000  -0.001122
    27  H    0.000002   0.000000   0.000000   0.000000   0.000000   0.000245
    28  H    0.000000   0.000000   0.000000   0.000000   0.000000   0.000004
    29  H   -0.000002   0.000004   0.000000  -0.000001   0.000000  -0.000129
    30  H   -0.000001   0.000001   0.000001   0.000041   0.000000  -0.000009
    31  H    0.000000   0.000000   0.000000   0.000000   0.000000   0.000002
             25         26         27         28         29         30
     1  C    0.003760   0.000960  -0.000566  -0.000127   0.000777  -0.003443
     2  C   -0.007667  -0.020179   0.020700   0.003497  -0.004882  -0.018355
     3  C    0.000458  -0.000851  -0.006173  -0.005357  -0.001665   0.005058
     4  C   -0.050897   0.023567   0.009466   0.031981   0.014492  -0.007098
     5  C   -0.000383  -0.001025  -0.000678  -0.000022  -0.000018   0.006678
     6  C   -0.008916  -0.002527  -0.001291  -0.000313  -0.006098   0.010779
     7  C   -0.000191  -0.000028   0.000073  -0.000013  -0.000441   0.000591
     8  O    0.000477   0.000275  -0.002292   0.000941   0.003270  -0.000022
     9  C    0.309529  -0.134020  -0.108755  -0.124888  -0.131539  -0.023178
    10  C   -0.013940   0.477725   0.443867   0.449249   0.000155  -0.006695
    11  C    0.034234   0.009459   0.001619   0.001186   0.477482   0.393258
    12  H    0.000000   0.000000   0.000000   0.000000   0.000000   0.000000
    13  H    0.000063   0.000045  -0.000006   0.000005  -0.001240  -0.000311
    14  H    0.004125  -0.000001   0.000036  -0.000011   0.000000   0.000100
    15  H   -0.000608  -0.000004   0.000000   0.000002   0.000060   0.001142
    16  H   -0.001477  -0.000237   0.003384   0.000196  -0.000034  -0.000037
    17  H    0.000001   0.000000   0.000001   0.000000   0.000000  -0.000001
    18  H   -0.000014   0.000000   0.000000   0.000000   0.000000   0.000005
    19  H    0.000000   0.000007   0.000002   0.000000  -0.000002  -0.000001
    20  H    0.000002   0.000003   0.000000   0.000000   0.000004   0.000001
    21  H    0.000000   0.000000   0.000000   0.000000   0.000000   0.000001
    22  H    0.000000   0.000000   0.000000   0.000000  -0.000001   0.000041
    23  H    0.000000   0.000000   0.000000   0.000000   0.000000   0.000000
    24  H   -0.000021  -0.001122   0.000245   0.000004  -0.000129  -0.000009
    25  H    0.594020   0.005011  -0.003442  -0.004237   0.005017  -0.003352
    26  H    0.005011   0.508532  -0.027220  -0.026526   0.003660   0.000006
    27  H   -0.003442  -0.027220   0.541804  -0.025807   0.000027  -0.000142
    28  H   -0.004237  -0.026526  -0.025807   0.538836  -0.000075   0.000029
    29  H    0.005017   0.003660   0.000027  -0.000075   0.515524  -0.028463
    30  H   -0.003352   0.000006  -0.000142   0.000029  -0.028463   0.541604
    31  H   -0.003997  -0.000081   0.000046   0.002581  -0.025889  -0.025995
             31
     1  C    0.000020
     2  C   -0.005920
     3  C    0.006020
     4  C    0.035786
     5  C    0.000339
     6  C    0.000258
     7  C   -0.000108
     8  O    0.000339
     9  C   -0.105462
    10  C   -0.001282
    11  C    0.428234
    12  H    0.000000
    13  H    0.000104
    14  H   -0.000012
    15  H   -0.000067
    16  H   -0.000087
    17  H    0.000000
    18  H    0.000000
    19  H    0.000000
    20  H    0.000000
    21  H    0.000000
    22  H    0.000000
    23  H    0.000000
    24  H    0.000002
    25  H   -0.003997
    26  H   -0.000081
    27  H    0.000046
    28  H    0.002581
    29  H   -0.025889
    30  H   -0.025995
    31  H    0.532231
 Mulliken atomic charges:
              1
     1  C    0.213332
     2  C   -0.292465
     3  C   -0.255037
     4  C   -0.064596
     5  C   -0.513728
     6  C   -0.371160
     7  C   -0.688799
     8  O   -0.473650
     9  C    0.386575
    10  C   -0.703318
    11  C   -0.659850
    12  H    0.155286
    13  H    0.162354
    14  H    0.159906
    15  H    0.163484
    16  H    0.143887
    17  H    0.161847
    18  H    0.158039
    19  H    0.155813
    20  H    0.174336
    21  H    0.165785
    22  H    0.162844
    23  H    0.164813
    24  H    0.352557
    25  H    0.142447
    26  H    0.184572
    27  H    0.155104
    28  H    0.158866
    29  H    0.180009
    30  H    0.157809
    31  H    0.162939
 Sum of Mulliken atomic charges =   0.00000
 Mulliken charges with hydrogens summed into heavy atoms:
              1
     1  C    0.368619
     2  C   -0.130111
     3  C    0.068353
     4  C    0.079291
     5  C   -0.193842
     6  C   -0.041011
     7  C   -0.195356
     8  O   -0.121093
     9  C    0.529021
    10  C   -0.204776
    11  C   -0.159094
 Sum of Mulliken charges with hydrogens summed into heavy atoms =   0.00000
 Electronic spatial extent (au):  <R**2>=           2059.2554
 Charge=              0.0000 electrons
 Dipole moment (field-independent basis, Debye):
    X=              1.0708    Y=             -1.1102    Z=             -1.4214  Tot=              2.0975
 Quadrupole moment (field-independent basis, Debye-Ang):
   XX=            -72.3930   YY=            -74.7544   ZZ=            -70.7231
   XY=              1.7385   XZ=              1.3242   YZ=             -3.5555
 Traceless Quadrupole moment (field-independent basis, Debye-Ang):
   XX=              0.2305   YY=             -2.1309   ZZ=              1.9004
   XY=              1.7385   XZ=              1.3242   YZ=             -3.5555
 Octapole moment (field-independent basis, Debye-Ang**2):
  XXX=              3.6657  YYY=              0.6480  ZZZ=             -3.9252  XYY=              2.5993
  XXY=             -0.1151  XXZ=             -0.6929  XZZ=             -1.1857  YZZ=              6.2360
  YYZ=             -9.4812  XYZ=              3.9700
 Hexadecapole moment (field-independent basis, Debye-Ang**3):
 XXXX=          -1815.4268 YYYY=           -631.5736 ZZZZ=           -422.7214 XXXY=              4.5117
 XXXZ=            -11.0010 YYYX=             -4.0993 YYYZ=            -20.8759 ZZZX=              0.9931
 ZZZY=             -2.0879 XXYY=           -400.0485 XXZZ=           -380.7586 YYZZ=           -165.5855
 XXYZ=             -3.0205 YYXZ=             12.3697 ZZXY=             -2.8495
 N-N= 6.961128275093D+02 E-N=-2.477526463725D+03  KE= 4.636971401804D+02
 1\1\GINC-COMPUTE-10-1\SP\RmPW1PW91\6-31+G(d,p)\C10H20O1\ASAROTTI.IQUIR
 \19-Sep-2024\0\\# mPW1PW91/6-31+G** nmr scrf=(pcm,solvent=benzene)\\co
 mment\\0,1\C,0,2.424871,0.122407,-0.266259\C,0,0.014494,0.927983,0.191
 622\C,0,0.431918,-1.486908,-0.393791\C,0,-0.571031,-0.31553,-0.509702\
 C,0,1.826143,-1.132248,-0.933527\C,0,1.408405,1.279176,-0.353351\C,0,2
 .897141,-0.1412,1.173739\O,0,-0.84336,2.073199,0.121959\C,0,-1.994876,
 -0.737333,-0.038092\C,0,-3.115857,0.088325,-0.692123\C,0,-2.161233,-0.
 745361,1.490812\H,0,3.312736,0.418005,-0.84305\H,0,0.090135,0.726353,1
 .265687\H,0,0.036694,-2.352335,-0.941312\H,0,0.506331,-1.802744,0.6560
 39\H,0,-0.646513,-0.067618,-1.58369\H,0,1.748239,-0.952917,-2.015866\H
 ,0,2.505602,-1.986015,-0.809437\H,0,1.293878,1.571322,-1.409806\H,0,1.
 777868,2.164808,0.178405\H,0,3.336297,0.762985,1.611782\H,0,2.082373,-
 0.461326,1.832636\H,0,3.661804,-0.927052,1.192912\H,0,-0.938023,2.3028
 34,-0.81702\H,0,-2.123412,-1.774417,-0.384645\H,0,-3.082513,1.128675,-
 0.35681\H,0,-3.032602,0.075518,-1.786566\H,0,-4.099574,-0.321831,-0.43
 2095\H,0,-2.140425,0.272603,1.894944\H,0,-1.37742,-1.327368,1.990192\H
 ,0,-3.124441,-1.190929,1.766052\\Version=EM64L-G09RevC.01\State=1-A\HF
 =-468.2807174\RMSD=7.077e-09\Dipole=0.4212762,-0.4367734,-0.5592306\Qu
 adrupole=0.1713882,-1.5842718,1.4128836,1.2925493,0.9845444,-2.6434158
 \PG=C01 [X(C10H20O1)]\\@


 This summer one third of the nation will be ill-housed
 ill-nourished and ill-clad. Only they call it a vacation.
 -- Jonas Salk
 Job cpu time:  0 days  0 hours 40 minutes  4.6 seconds.
 File lengths (MBytes):  RWF=    119 Int=      0 D2E=      0 Chk=      7 Scr=      1
 Normal termination of Gaussian 09 at Thu Sep 19 08:43:10 2024.
