 Entering Gaussian System, Link 0=g09
 Input=/home/asarotti.iquir/SCF2/02_Mentol17_OptB_NMR_benzene.gjc
 Output=/home/asarotti.iquir/SCF2/02_Mentol17_OptB_NMR_benzene.log
 Initial command:
 /opt/ohpc/pub/apps/software/Gaussian/09/AMD64.SSE4a-enabled/g09/l1.exe /local/asarotti.iquir/Gau-2483774.inp -scrdir=/local/asarotti.iquir/
 Entering Link 1 = /opt/ohpc/pub/apps/software/Gaussian/09/AMD64.SSE4a-enabled/g09/l1.exe PID=   2483775.
  
 Copyright (c) 1988,1990,1992,1993,1995,1998,2003,2009,2011,
            Gaussian, Inc.  All Rights Reserved.
  
 This is part of the Gaussian(R) 09 program.  It is based on
 the Gaussian(R) 03 system (copyright 2003, Gaussian, Inc.),
 the Gaussian(R) 98 system (copyright 1998, Gaussian, Inc.),
 the Gaussian(R) 94 system (copyright 1995, Gaussian, Inc.),
 the Gaussian 92(TM) system (copyright 1992, Gaussian, Inc.),
 the Gaussian 90(TM) system (copyright 1990, Gaussian, Inc.),
 the Gaussian 88(TM) system (copyright 1988, Gaussian, Inc.),
 the Gaussian 86(TM) system (copyright 1986, Carnegie Mellon
 University), and the Gaussian 82(TM) system (copyright 1983,
 Carnegie Mellon University). Gaussian is a federally registered
 trademark of Gaussian, Inc.
  
 This software contains proprietary and confidential information,
 including trade secrets, belonging to Gaussian, Inc.
  
 This software is provided under written license and may be
 used, copied, transmitted, or stored only in accord with that
 written license.
  
 The following legend is applicable only to US Government
 contracts under FAR:
  
                    RESTRICTED RIGHTS LEGEND
  
 Use, reproduction and disclosure by the US Government is
 subject to restrictions as set forth in subparagraphs (a)
 and (c) of the Commercial Computer Software - Restricted
 Rights clause in FAR 52.227-19.
  
 Gaussian, Inc.
 340 Quinnipiac St., Bldg. 40, Wallingford CT 06492
  
  
 ---------------------------------------------------------------
 Warning -- This program may not be used in any manner that
 competes with the business of Gaussian, Inc. or will provide
 assistance to any competitor of Gaussian, Inc.  The licensee
 of this program is prohibited from giving any competitor of
 Gaussian, Inc. access to this program.  By using this program,
 the user acknowledges that Gaussian, Inc. is engaged in the
 business of creating and licensing software in the field of
 computational chemistry and represents and warrants to the
 licensee that it is not a competitor of Gaussian, Inc. and that
 it will not use this program in any manner prohibited above.
 ---------------------------------------------------------------
  

 Cite this work as:
 Gaussian 09, Revision C.01,
 M. J. Frisch, G. W. Trucks, H. B. Schlegel, G. E. Scuseria, 
 M. A. Robb, J. R. Cheeseman, G. Scalmani, V. Barone, B. Mennucci, 
 G. A. Petersson, H. Nakatsuji, M. Caricato, X. Li, H. P. Hratchian, 
 A. F. Izmaylov, J. Bloino, G. Zheng, J. L. Sonnenberg, M. Hada, 
 M. Ehara, K. Toyota, R. Fukuda, J. Hasegawa, M. Ishida, T. Nakajima, 
 Y. Honda, O. Kitao, H. Nakai, T. Vreven, J. A. Montgomery, Jr., 
 J. E. Peralta, F. Ogliaro, M. Bearpark, J. J. Heyd, E. Brothers, 
 K. N. Kudin, V. N. Staroverov, T. Keith, R. Kobayashi, J. Normand, 
 K. Raghavachari, A. Rendell, J. C. Burant, S. S. Iyengar, J. Tomasi, 
 M. Cossi, N. Rega, J. M. Millam, M. Klene, J. E. Knox, J. B. Cross, 
 V. Bakken, C. Adamo, J. Jaramillo, R. Gomperts, R. E. Stratmann, 
 O. Yazyev, A. J. Austin, R. Cammi, C. Pomelli, J. W. Ochterski, 
 R. L. Martin, K. Morokuma, V. G. Zakrzewski, G. A. Voth, 
 P. Salvador, J. J. Dannenberg, S. Dapprich, A. D. Daniels, 
 O. Farkas, J. B. Foresman, J. V. Ortiz, J. Cioslowski, 
 and D. J. Fox, Gaussian, Inc., Wallingford CT, 2010.
 
 ******************************************
 Gaussian 09:  AM64L-G09RevC.01 23-Sep-2011
                19-Sep-2024 
 ******************************************
 %nprocshared=4
 Will use up to    4 processors via shared memory.
 %mem=100mw
 --------------------------------------------------
 # mPW1PW91/6-31+G** nmr scrf=(pcm,solvent=benzene)
 --------------------------------------------------
 1/38=1/1;
 2/12=2,17=6,18=5,40=1/2;
 3/5=1,6=6,7=111,11=2,16=1,25=1,30=1,70=2201,72=12,74=-7/1,2,8,3;
 4//1;
 5/5=2,38=5,53=12/2;
 8/6=1,10=90,11=11/1;
 10/13=100,45=16/2;
 6/7=2,8=2,9=2,10=2,28=1/1;
 99/9=1/99;
 -------
 comment
 -------
 Charge =  0 Multiplicity = 1
 Symbolic Z-Matrix:
 6                    -2.00055  -0.29018   0.20568 
 6                    -0.16334   1.31559  -0.58896 
 6                     0.23665  -0.1863    1.44062 
 6                     0.90655   0.631     0.30524 
 6                    -0.94216  -1.07365   1.00055 
 6                    -1.33587   0.40702  -0.99482 
 6                    -3.16681  -1.18231  -0.23282 
 8                    -0.65613   2.50605   0.04685 
 6                     2.03994  -0.09733  -0.48145 
 6                     1.70521  -1.47041  -1.08822 
 6                     3.30729  -0.21717   0.38437 
 1                    -2.41391   0.48871   0.86871 
 1                     0.32573   1.69316  -1.4945 
 1                    -0.13741   0.52089   2.1966 
 1                     0.98627  -0.79313   1.96307 
 1                     1.41479   1.47853   0.78404 
 1                    -1.40303  -1.52744   1.88864 
 1                    -0.58597  -1.90624   0.38089 
 1                    -2.06868   1.01991  -1.53443 
 1                    -0.985    -0.35968  -1.69852 
 1                    -3.92624  -0.60695  -0.77549 
 1                    -2.81788  -1.98305  -0.89769 
 1                    -3.65365  -1.65409   0.62926 
 1                    -1.11269   2.23898   0.85959 
 1                     2.29314   0.57089  -1.31916 
 1                     1.50792  -2.21858  -0.3116 
 1                     0.83811  -1.43973  -1.75482 
 1                     2.55621  -1.83402  -1.67684 
 1                     3.14654  -0.87493   1.24765 
 1                     3.62679   0.76024   0.76417 
 1                     4.13658  -0.63937  -0.19547 
 
                          Input orientation:                          
 ---------------------------------------------------------------------
 Center     Atomic      Atomic             Coordinates (Angstroms)
 Number     Number       Type             X           Y           Z
 ---------------------------------------------------------------------
      1          6           0       -2.000553   -0.290184    0.205678
      2          6           0       -0.163344    1.315586   -0.588959
      3          6           0        0.236646   -0.186299    1.440622
      4          6           0        0.906552    0.631002    0.305236
      5          6           0       -0.942156   -1.073650    1.000547
      6          6           0       -1.335868    0.407017   -0.994823
      7          6           0       -3.166812   -1.182313   -0.232821
      8          8           0       -0.656133    2.506046    0.046852
      9          6           0        2.039943   -0.097327   -0.481450
     10          6           0        1.705209   -1.470410   -1.088224
     11          6           0        3.307291   -0.217168    0.384374
     12          1           0       -2.413912    0.488711    0.868714
     13          1           0        0.325729    1.693155   -1.494502
     14          1           0       -0.137408    0.520894    2.196597
     15          1           0        0.986267   -0.793130    1.963067
     16          1           0        1.414789    1.478525    0.784039
     17          1           0       -1.403025   -1.527435    1.888644
     18          1           0       -0.585974   -1.906242    0.380894
     19          1           0       -2.068677    1.019909   -1.534432
     20          1           0       -0.985001   -0.359676   -1.698519
     21          1           0       -3.926243   -0.606945   -0.775487
     22          1           0       -2.817880   -1.983047   -0.897690
     23          1           0       -3.653650   -1.654089    0.629258
     24          1           0       -1.112695    2.238976    0.859594
     25          1           0        2.293142    0.570886   -1.319156
     26          1           0        1.507918   -2.218577   -0.311603
     27          1           0        0.838114   -1.439727   -1.754824
     28          1           0        2.556210   -1.834017   -1.676836
     29          1           0        3.146543   -0.874932    1.247654
     30          1           0        3.626790    0.760243    0.764171
     31          1           0        4.136581   -0.639367   -0.195474
 ---------------------------------------------------------------------
                    Distance matrix (angstroms):
                    1          2          3          4          5
     1  C    0.000000
     2  C    2.566180   0.000000
     3  C    2.557526   2.556335   0.000000
     4  C    3.051189   1.553357   1.551082   0.000000
     5  C    1.538129   2.973470   1.539686   2.609026   0.000000
     6  C    1.539187   1.537867   2.959090   2.601686   2.515728
     7  C    1.532428   3.922646   3.921222   4.491092   2.545997
     8  O    3.106701   1.436764   3.160438   2.454493   3.715584
     9  C    4.103041   2.619610   2.637074   1.560100   3.470221
    10  C    4.098754   3.391538   3.193850   2.644904   3.395427
    11  C    5.311353   3.916889   3.247379   2.547391   4.378474
    12  H    1.103250   2.805992   2.794311   3.370940   2.150446
    13  H    3.497976   1.096248   3.486436   2.169005   3.935481
    14  H    2.844805   2.896814   1.100698   2.163151   2.149587
    15  H    3.501780   3.504444   1.096870   2.186987   2.173465
    16  H    3.889395   2.098136   2.142606   1.098113   3.480756
    17  H    2.172603   3.969647   2.165154   3.535559   1.098653
    18  H    2.154850   3.391078   2.181268   2.944650   1.097290
    19  H    2.179213   2.147472   3.952265   3.519604   3.475364
    20  H    2.159199   2.170886   3.372935   2.928216   2.792231
    21  H    2.184332   4.229696   4.734736   5.104545   3.503839
    22  H    2.179732   4.245333   4.245720   4.706557   2.819335
    23  H    2.184579   4.741862   4.236404   5.110976   2.797671
    24  H    2.759085   1.962708   2.835538   2.640123   3.320006
    25  H    4.637066   2.668724   3.524043   2.136562   4.307281
    26  H    4.036787   3.919228   2.969272   2.976950   3.005904
    27  H    3.636351   3.154982   3.484784   2.921720   3.300825
    28  H    5.166369   4.301099   4.220651   3.567394   4.470470
    29  H    5.283961   4.373428   2.996490   2.858942   4.100977
    30  H    5.751722   4.062571   3.584216   2.761706   4.928925
    31  H    6.160135   4.739834   4.253419   3.506798   5.235708
                    6          7          8          9         10
     6  C    0.000000
     7  C    2.541451   0.000000
     8  O    2.439887   4.470539   0.000000
     9  C    3.451668   5.324407   3.784902   0.000000
    10  C    3.575137   4.954927   4.761989   1.538044   0.000000
    11  C    4.883720   6.574682   4.820637   1.539540   2.511141
    12  H    2.154443   2.138354   2.799086   4.690758   4.963358
    13  H    2.159800   4.696594   2.000154   2.677803   3.475078
    14  H    3.410929   4.240315   2.971752   3.506421   4.260350
    15  H    3.947376   4.713964   4.153784   2.751370   3.207174
    16  H    3.446534   5.394917   2.426512   2.115559   3.505129
    17  H    3.472895   2.780408   4.496556   4.417758   4.304197
    18  H    2.793941   2.749808   4.425471   3.303218   2.756406
    19  H    1.097189   2.783859   2.589275   4.386085   4.543457
    20  H    1.098232   2.754143   3.371474   3.271142   2.973789
    21  H    2.790389   1.096481   4.589180   5.995127   5.705842
    22  H    2.813930   1.097715   5.071219   5.227585   4.556033
    23  H    3.501130   1.096706   5.160526   6.006179   5.630351
    24  H    2.616246   4.137389   0.969703   4.146786   5.049170
    25  H    3.647158   5.836517   3.782730   1.101077   2.136793
    26  H    3.930350   4.788857   5.208999   2.193536   1.096274
    27  H    2.951993   4.292108   4.587803   2.206335   1.094144
    28  H    4.542647   5.938255   5.668015   2.170615   1.096757
    29  H    5.173404   6.491898   5.228124   2.195230   2.808623
    30  H    5.277007   7.135863   4.680364   2.192050   3.478456
    31  H    5.628639   7.323642   5.737809   2.184372   2.720148
                   11         12         13         14         15
    11  C    0.000000
    12  H    5.784895   0.000000
    13  H    4.008643   3.813280   0.000000
    14  H    3.961671   2.635674   3.900372   0.000000
    15  H    2.865512   3.794989   4.309606   1.744661   0.000000
    16  H    2.572289   3.955484   2.534535   2.306879   2.595025
    17  H    5.115340   2.475277   4.980609   2.427400   2.500692
    18  H    4.243877   3.052069   4.159804   3.064144   2.492836
    19  H    5.840651   2.485250   2.487576   4.230767   4.985207
    20  H    4.773104   3.058142   2.444126   4.082370   4.181028
    21  H    7.336295   2.488173   4.887403   4.945763   5.627353
    22  H    6.502287   3.064794   4.873697   4.798881   4.906258
    23  H    7.111920   2.487143   5.616926   4.421658   4.903991
    24  H    5.078854   2.180981   2.812250   2.385491   3.849281
    25  H    2.133434   5.191328   2.271772   4.274411   3.787011
    26  H    2.779886   4.909512   4.254229   4.062372   2.734619
    27  H    3.488216   4.601902   3.185162   4.517677   3.776606
    28  H    2.725236   6.047892   4.177228   5.273013   4.098422
    29  H    1.097153   5.737750   4.698030   3.692311   2.277125
    30  H    1.096201   6.047705   4.107181   4.034640   3.289784
    31  H    1.096448   6.731569   4.653034   5.033408   3.821966
                   16         17         18         19         20
    16  H    0.000000
    17  H    4.265680   0.000000
    18  H    3.952496   1.756239   0.000000
    19  H    4.209533   4.318507   3.798584   0.000000
    20  H    3.911658   3.795543   2.622031   1.761968   0.000000
    21  H    5.942048   3.783058   3.766004   2.583254   3.092577
    22  H    5.720680   3.158014   2.573340   3.159824   2.576064
    23  H    5.960394   2.582132   3.088026   3.787342   3.770376
    24  H    2.640487   3.915238   4.205879   2.851559   3.648731
    25  H    2.453312   5.324902   4.161207   4.390152   3.428715
    26  H    3.857158   3.713806   2.227440   4.977463   3.404951
    27  H    3.910828   4.278464   2.609014   3.814160   2.119771
    28  H    4.281551   5.336870   3.756699   5.436428   3.835926
    29  H    2.958491   4.640603   3.968193   6.207169   5.100498
    30  H    2.325784   5.638878   5.000442   6.147304   5.346745
    31  H    3.585117   5.984935   4.923383   6.561344   5.344902
                   21         22         23         24         25
    21  H    0.000000
    22  H    1.771174   0.000000
    23  H    1.773168   1.771523   0.000000
    24  H    4.323055   4.880695   4.654617   0.000000
    25  H    6.353236   5.729115   6.641624   4.373694   0.000000
    26  H    5.687060   4.371670   5.276898   5.301801   3.068036
    27  H    4.934747   3.794228   5.089768   4.916675   2.519817
    28  H    6.658854   5.432322   6.626674   6.040167   2.445547
    29  H    7.361333   6.434653   6.872563   5.290380   3.067115
    30  H    7.828669   7.198694   7.671506   4.965730   2.480872
    31  H    8.083724   7.117802   7.899212   6.078892   2.475003
                   26         27         28         29         30
    26  H    0.000000
    27  H    1.771477   0.000000
    28  H    1.763707   1.764483   0.000000
    29  H    2.630923   3.829192   3.133844   0.000000
    30  H    3.810548   4.354528   3.719522   1.771494   0.000000
    31  H    3.068755   3.735242   2.473701   1.765867   1.771924
                   31
    31  H    0.000000
 Stoichiometry    C10H20O
 Framework group  C1[X(C10H20O)]
 Deg. of freedom    87
 Full point group                 C1      NOp   1
 Largest Abelian subgroup         C1      NOp   1
 Largest concise Abelian subgroup C1      NOp   1
                         Standard orientation:                         
 ---------------------------------------------------------------------
 Center     Atomic      Atomic             Coordinates (Angstroms)
 Number     Number       Type             X           Y           Z
 ---------------------------------------------------------------------
      1          6           0       -2.000553   -0.290184    0.205678
      2          6           0       -0.163344    1.315586   -0.588959
      3          6           0        0.236646   -0.186299    1.440622
      4          6           0        0.906552    0.631002    0.305236
      5          6           0       -0.942156   -1.073650    1.000547
      6          6           0       -1.335868    0.407017   -0.994823
      7          6           0       -3.166812   -1.182313   -0.232821
      8          8           0       -0.656133    2.506046    0.046852
      9          6           0        2.039943   -0.097327   -0.481450
     10          6           0        1.705209   -1.470410   -1.088224
     11          6           0        3.307291   -0.217168    0.384374
     12          1           0       -2.413912    0.488711    0.868714
     13          1           0        0.325729    1.693155   -1.494502
     14          1           0       -0.137408    0.520894    2.196597
     15          1           0        0.986267   -0.793130    1.963067
     16          1           0        1.414789    1.478525    0.784039
     17          1           0       -1.403025   -1.527435    1.888644
     18          1           0       -0.585974   -1.906242    0.380894
     19          1           0       -2.068677    1.019909   -1.534432
     20          1           0       -0.985001   -0.359676   -1.698519
     21          1           0       -3.926243   -0.606945   -0.775487
     22          1           0       -2.817880   -1.983047   -0.897690
     23          1           0       -3.653650   -1.654089    0.629258
     24          1           0       -1.112695    2.238976    0.859594
     25          1           0        2.293142    0.570886   -1.319156
     26          1           0        1.507918   -2.218577   -0.311603
     27          1           0        0.838114   -1.439727   -1.754824
     28          1           0        2.556210   -1.834017   -1.676836
     29          1           0        3.146543   -0.874932    1.247654
     30          1           0        3.626790    0.760243    0.764171
     31          1           0        4.136581   -0.639367   -0.195474
 ---------------------------------------------------------------------
 Rotational constants (GHZ):      1.5204279      0.7746153      0.6572228
 Standard basis: 6-31+G(d,p) (6D, 7F)
 There are   309 symmetry adapted basis functions of A   symmetry.
 Integral buffers will be    131072 words long.
 Raffenetti 2 integral format.
 Two-electron integral symmetry is turned on.
   309 basis functions,   492 primitive gaussians,   309 cartesian basis functions
    44 alpha electrons       44 beta electrons
       nuclear repulsion energy       695.6656024122 Hartrees.
 NAtoms=   31 NActive=   31 NUniq=   31 SFac= 1.00D+00 NAtFMM=   60 NAOKFM=F Big=F
 ------------------------------------------------------------------------------
 Polarizable Continuum Model (PCM)
 =================================
 Model                : PCM.
 Atomic radii         : UFF (Universal Force Field).
 Polarization charges : Total charges.
 Charge compensation  : None.
 Solution method      : Matrix inversion.
 Cavity type          : Scaled VdW (van der Waals Surface) (Alpha=1.100).
 Cavity algorithm     : GePol (No added spheres)
                        Default sphere list used, NSphG=   31.
                        Lebedev-Laikov grids with approx.  5.0 points / Ang**2.
                        Smoothing algorithm: Karplus/York (Gamma=1.0000).
                        Polarization charges: spherical gaussians, with
                                              point-specific exponents (IZeta= 3).
                        Self-potential: point-specific (ISelfS= 7).
                        Self-field    : sphere-specific E.n sum rule (ISelfD= 2).
 Solvent              : Benzene, Eps=   2.270600 Eps(inf)=   2.253301
 ------------------------------------------------------------------------------
 One-electron integrals computed using PRISM.
 NBasis=   309 RedAO= T  NBF=   309
 NBsUse=   309 1.00D-06 NBFU=   309
 Harris functional with IExCor=  908 diagonalized for initial guess.
 ExpMin= 4.38D-02 ExpMax= 5.48D+03 ExpMxC= 8.25D+02 IAcc=2 IRadAn=         4 AccDes= 0.00D+00
 HarFok:  IExCor=  908 AccDes= 0.00D+00 IRadAn=         4 IDoV= 1
 ScaDFX=  1.000000  1.000000  1.000000  1.000000
 FoFCou: FMM=F IPFlag=           0 FMFlag=      100000 FMFlg1=           0
         NFxFlg=           0 DoJE=T BraDBF=F KetDBF=T FulRan=T
         Omega=  0.000000  0.000000  1.000000  0.000000  0.000000 ICntrl=     500 IOpCl=  0
         NMat0=    1 NMatS0=    1 NMatT0=    0 NMatD0=    1 NMtDS0=    0 NMtDT0=    0
         I1Cent=           4 NGrid=           0.
 Petite list used in FoFCou.
 Initial guess orbital symmetries:
       Occupied  (A) (A) (A) (A) (A) (A) (A) (A) (A) (A) (A) (A)
                 (A) (A) (A) (A) (A) (A) (A) (A) (A) (A) (A) (A)
                 (A) (A) (A) (A) (A) (A) (A) (A) (A) (A) (A) (A)
                 (A) (A) (A) (A) (A) (A) (A) (A)
       Virtual   (A) (A) (A) (A) (A) (A) (A) (A) (A) (A) (A) (A)
                 (A) (A) (A) (A) (A) (A) (A) (A) (A) (A) (A) (A)
                 (A) (A) (A) (A) (A) (A) (A) (A) (A) (A) (A) (A)
                 (A) (A) (A) (A) (A) (A) (A) (A) (A) (A) (A) (A)
                 (A) (A) (A) (A) (A) (A) (A) (A) (A) (A) (A) (A)
                 (A) (A) (A) (A) (A) (A) (A) (A) (A) (A) (A) (A)
                 (A) (A) (A) (A) (A) (A) (A) (A) (A) (A) (A) (A)
                 (A) (A) (A) (A) (A) (A) (A) (A) (A) (A) (A) (A)
                 (A) (A) (A) (A) (A) (A) (A) (A) (A) (A) (A) (A)
                 (A) (A) (A) (A) (A) (A) (A) (A) (A) (A) (A) (A)
                 (A) (A) (A) (A) (A) (A) (A) (A) (A) (A) (A) (A)
                 (A) (A) (A) (A) (A) (A) (A) (A) (A) (A) (A) (A)
                 (A) (A) (A) (A) (A) (A) (A) (A) (A) (A) (A) (A)
                 (A) (A) (A) (A) (A) (A) (A) (A) (A) (A) (A) (A)
                 (A) (A) (A) (A) (A) (A) (A) (A) (A) (A) (A) (A)
                 (A) (A) (A) (A) (A) (A) (A) (A) (A) (A) (A) (A)
                 (A) (A) (A) (A) (A) (A) (A) (A) (A) (A) (A) (A)
                 (A) (A) (A) (A) (A) (A) (A) (A) (A) (A) (A) (A)
                 (A) (A) (A) (A) (A) (A) (A) (A) (A) (A) (A) (A)
                 (A) (A) (A) (A) (A) (A) (A) (A) (A) (A) (A) (A)
                 (A) (A) (A) (A) (A) (A) (A) (A) (A) (A) (A) (A)
                 (A) (A) (A) (A) (A) (A) (A) (A) (A) (A) (A) (A)
                 (A)
 The electronic state of the initial guess is 1-A.
 Requested convergence on RMS density matrix=1.00D-08 within 128 cycles.
 Requested convergence on MAX density matrix=1.00D-06.
 Requested convergence on             energy=1.00D-06.
 No special actions if energy rises.
 Error on total polarization charges =  0.00932
 SCF Done:  E(RmPW1PW91) =  -468.276542552     A.U. after   12 cycles
             Convg  =    0.9719D-08             -V/T =  2.0099
 Range of M.O.s used for correlation:     1   309
 NBasis=   309 NAE=    44 NBE=    44 NFC=     0 NFV=     0
 NROrb=    309 NOA=    44 NOB=    44 NVA=   265 NVB=   265

 **** Warning!!: The largest alpha MO coefficient is  0.85555791D+02

 NEqPCM:  Using equilibrium solvation (IEInf=0, Eps=   2.2706, EpsInf=   2.2533)
          Differentiating once with respect to magnetic field using GIAOs.
          Electric field/nuclear overlap derivatives assumed to be zero.
 FoFCou: FMM=F IPFlag=           0 FMFlag=    10101102 FMFlg1=           0
         NFxFlg=    40000000 DoJE=F BraDBF=F KetDBF=T FulRan=T
         Omega=  0.000000  0.000000  1.000000  0.000000  0.000000 ICntrl=    6100 IOpCl=  0
         NMat0=    1 NMatS0=    1 NMatT0=    0 NMatD0=    1 NMtDS0=    0 NMtDT0=    0
         I1Cent=           7 NGrid=        1913.
 Symmetry not used in FoFCou.
          There are     3 degrees of freedom in the 1st order CPHF.  IDoFFX=0.
      3 vectors produced by pass  0 Test12= 3.89D-13 3.33D-08 XBig12= 3.59D+01 1.29D+00.
 AX will form     3 AO Fock derivatives at one time.
      3 vectors produced by pass  1 Test12= 3.89D-13 3.33D-08 XBig12= 7.59D-02 3.88D-02.
      3 vectors produced by pass  2 Test12= 3.89D-13 3.33D-08 XBig12= 1.75D-04 2.66D-03.
      3 vectors produced by pass  3 Test12= 3.89D-13 3.33D-08 XBig12= 6.72D-07 2.13D-04.
      3 vectors produced by pass  4 Test12= 3.89D-13 3.33D-08 XBig12= 2.10D-09 6.98D-06.
      3 vectors produced by pass  5 Test12= 3.89D-13 3.33D-08 XBig12= 4.15D-12 3.04D-07.
 Inverted reduced A of dimension    18 with in-core refinement.
 Calculating GIAO nuclear magnetic shielding tensors.
 SCF GIAO Magnetic shielding tensor (ppm):
      1  C    Isotropic =   167.2159   Anisotropy =    16.2883
   XX=   168.4837   YX=    -3.2627   ZX=     6.6881
   XY=    -2.3798   YY=   166.5393   ZY=     0.2823
   XZ=    14.2484   YZ=     4.8537   ZZ=   166.6246
   Eigenvalues:   155.7111   167.8618   178.0748
      2  C    Isotropic =   119.7777   Anisotropy =    46.1992
   XX=   119.0240   YX=   -23.4528   ZX=    -6.0119
   XY=   -20.2701   YY=   125.3423   ZY=    17.1918
   XZ=    -4.2482   YZ=    13.1605   ZZ=   114.9668
   Eigenvalues:    97.2758   111.4802   150.5772
      3  C    Isotropic =   173.9371   Anisotropy =    23.4987
   XX=   180.4509   YX=     9.7781   ZX=     4.4272
   XY=    13.0023   YY=   174.0893   ZY=     2.6905
   XZ=    -0.8862   YZ=     3.7502   ZZ=   167.2712
   Eigenvalues:   164.4846   167.7239   189.6029
      4  C    Isotropic =   149.1547   Anisotropy =    29.7352
   XX=   154.3227   YX=   -15.0141   ZX=     5.8051
   XY=   -15.1792   YY=   152.2170   ZY=    15.3886
   XZ=     9.5050   YZ=    11.1733   ZZ=   140.9245
   Eigenvalues:   124.4080   154.0779   168.9782
      5  C    Isotropic =   162.4133   Anisotropy =    17.3188
   XX=   170.0658   YX=     0.7394   ZX=     6.6822
   XY=    -6.4555   YY=   158.2301   ZY=    -0.3255
   XZ=     6.9393   YZ=    -2.6783   ZZ=   158.9440
   Eigenvalues:   155.7033   157.5774   173.9592
      6  C    Isotropic =   155.1976   Anisotropy =    19.9100
   XX=   157.7739   YX=    12.4319   ZX=     1.1689
   XY=     5.1135   YY=   161.1773   ZY=     4.5419
   XZ=    -8.0043   YZ=    -1.8039   ZZ=   146.6417
   Eigenvalues:   144.5388   152.5831   168.4709
      7  C    Isotropic =   172.7791   Anisotropy =    38.4429
   XX=   185.0718   YX=    14.4916   ZX=     6.9034
   XY=    19.4262   YY=   170.7854   ZY=     1.9881
   XZ=    10.8849   YZ=     2.3470   ZZ=   162.4801
   Eigenvalues:   156.9042   163.0255   198.4077
      8  O    Isotropic =   268.7284   Anisotropy =    45.6620
   XX=   271.2350   YX=   -16.6008   ZX=    28.8000
   XY=   -19.7381   YY=   287.3518   ZY=    18.6339
   XZ=    25.5470   YZ=    16.6143   ZZ=   247.5985
   Eigenvalues:   220.5848   286.4308   299.1698
      9  C    Isotropic =   159.5492   Anisotropy =    20.3883
   XX=   166.1568   YX=    -3.5437   ZX=    -9.0103
   XY=    -8.3945   YY=   153.1183   ZY=     0.7562
   XZ=    -7.8253   YZ=    -0.4372   ZZ=   159.3723
   Eigenvalues:   149.5160   155.9901   173.1413
     10  C    Isotropic =   174.7397   Anisotropy =    21.0636
   XX=   174.4214   YX=     2.0020   ZX=     1.1481
   XY=     8.4118   YY=   180.6969   ZY=    11.7773
   XZ=     3.2021   YZ=     8.5478   ZZ=   169.1009
   Eigenvalues:   163.1445   172.2925   188.7821
     11  C    Isotropic =   171.4064   Anisotropy =    39.4468
   XX=   186.1899   YX=     1.0112   ZX=    17.3693
   XY=    -5.0636   YY=   163.2840   ZY=    10.1420
   XZ=    20.6101   YZ=    11.4936   ZZ=   164.7451
   Eigenvalues:   146.9657   169.5492   197.7042
     12  H    Isotropic =    30.1431   Anisotropy =     6.3578
   XX=    31.3548   YX=    -0.9381   ZX=    -2.5802
   XY=    -0.5651   YY=    30.7192   ZY=     3.0642
   XZ=    -2.6317   YZ=     2.8936   ZZ=    28.3552
   Eigenvalues:    25.7316    30.3160    34.3816
     13  H    Isotropic =    27.9498   Anisotropy =     4.6255
   XX=    27.1195   YX=     0.3020   ZX=    -2.3401
   XY=    -0.9278   YY=    28.0504   ZY=    -0.9337
   XZ=    -2.7846   YZ=    -2.3053   ZZ=    28.6793
   Eigenvalues:    24.7434    28.0724    31.0334
     14  H    Isotropic =    30.1254   Anisotropy =     9.0080
   XX=    27.1339   YX=     1.1487   ZX=    -0.8899
   XY=     0.2409   YY=    28.8541   ZY=     3.2816
   XZ=    -1.7987   YZ=     3.5999   ZZ=    34.3882
   Eigenvalues:    25.9189    28.3266    36.1308
     15  H    Isotropic =    29.8351   Anisotropy =     8.3686
   XX=    32.6697   YX=    -1.6361   ZX=     2.5224
   XY=    -1.2431   YY=    26.2640   ZY=    -2.9018
   XZ=     2.5641   YZ=    -3.5665   ZZ=    30.5715
   Eigenvalues:    24.5314    29.5596    35.4141
     16  H    Isotropic =    29.9863   Anisotropy =     5.9801
   XX=    31.4512   YX=     0.9662   ZX=     0.1163
   XY=     1.3079   YY=    32.4547   ZY=     2.0581
   XZ=     0.7411   YZ=     3.1738   ZZ=    26.0531
   Eigenvalues:    25.1201    30.8659    33.9730
     17  H    Isotropic =    30.2392   Anisotropy =     9.1434
   XX=    29.9347   YX=     2.6335   ZX=    -1.4874
   XY=     3.1049   YY=    28.4630   ZY=    -4.3952
   XZ=    -1.0801   YZ=    -4.4024   ZZ=    32.3200
   Eigenvalues:    24.9218    29.4611    36.3348
     18  H    Isotropic =    30.4679   Anisotropy =     5.2308
   XX=    32.0049   YX=    -0.5439   ZX=    -0.9582
   XY=    -1.1973   YY=    32.8726   ZY=     2.0077
   XZ=    -1.1097   YZ=     1.4395   ZZ=    26.5264
   Eigenvalues:    25.9825    31.4661    33.9551
     19  H    Isotropic =    29.7965   Anisotropy =     8.2525
   XX=    29.9825   YX=    -1.3457   ZX=     3.3474
   XY=    -0.4645   YY=    29.3827   ZY=    -3.7480
   XZ=     3.5868   YZ=    -3.4035   ZZ=    30.0244
   Eigenvalues:    25.2983    28.7930    35.2982
     20  H    Isotropic =    30.1900   Anisotropy =     4.9955
   XX=    30.3833   YX=    -0.0997   ZX=    -0.3241
   XY=    -0.4366   YY=    28.4517   ZY=     3.0509
   XZ=    -0.6305   YZ=     2.7470   ZZ=    31.7349
   Eigenvalues:    26.7618    30.2878    33.5203
     21  H    Isotropic =    30.6070   Anisotropy =    10.8822
   XX=    35.8679   YX=    -1.4464   ZX=     4.2703
   XY=    -0.3833   YY=    27.8730   ZY=    -0.7250
   XZ=     4.0872   YZ=    -1.7006   ZZ=    28.0800
   Eigenvalues:    25.9478    28.0113    37.8618
     22  H    Isotropic =    30.9641   Anisotropy =     8.1604
   XX=    29.8965   YX=     1.8533   ZX=     0.9002
   XY=     1.2301   YY=    33.0068   ZY=     4.3091
   XZ=     0.4133   YZ=     4.1553   ZZ=    29.9888
   Eigenvalues:    26.9578    29.5300    36.4043
     23  H    Isotropic =    30.5292   Anisotropy =    10.6623
   XX=    32.9588   YX=     4.4008   ZX=    -3.4656
   XY=     4.2776   YY=    28.8577   ZY=    -3.0995
   XZ=    -2.5241   YZ=    -1.9831   ZZ=    29.7712
   Eigenvalues:    25.9767    27.9735    37.6374
     24  H    Isotropic =    29.8488   Anisotropy =    12.0054
   XX=    26.5103   YX=    -0.6959   ZX=    -6.9794
   XY=    -0.7459   YY=    29.8447   ZY=     0.6317
   XZ=    -7.3475   YZ=     0.5444   ZZ=    33.1913
   Eigenvalues:    21.9359    29.7581    37.8524
     25  H    Isotropic =    29.7174   Anisotropy =     7.1171
   XX=    29.4404   YX=     1.2306   ZX=    -2.4722
   XY=     0.5630   YY=    29.2587   ZY=    -3.2282
   XZ=    -2.0372   YZ=    -3.7416   ZZ=    30.4532
   Eigenvalues:    26.0952    28.5949    34.4622
     26  H    Isotropic =    30.7855   Anisotropy =     5.8764
   XX=    29.4582   YX=     0.4093   ZX=    -1.9597
   XY=     0.2848   YY=    34.2651   ZY=    -1.8772
   XZ=    -1.7785   YZ=    -0.8708   ZZ=    28.6334
   Eigenvalues:    27.0263    30.6272    34.7032
     27  H    Isotropic =    30.3805   Anisotropy =     7.3759
   XX=    32.6415   YX=    -1.2224   ZX=     2.8485
   XY=     0.2456   YY=    27.9816   ZY=     4.1049
   XZ=     3.2240   YZ=     3.1623   ZZ=    30.5185
   Eigenvalues:    24.7646    31.0792    35.2978
     28  H    Isotropic =    30.7118   Anisotropy =    10.7210
   XX=    31.6080   YX=    -2.3263   ZX=    -3.6292
   XY=    -3.0448   YY=    29.8252   ZY=     4.3617
   XZ=    -3.7030   YZ=     4.2268   ZZ=    30.7023
   Eigenvalues:    25.8834    28.3930    37.8592
     29  H    Isotropic =    30.4764   Anisotropy =     6.6991
   XX=    31.2702   YX=    -1.5955   ZX=     2.0975
   XY=    -0.7410   YY=    28.1858   ZY=    -3.0114
   XZ=     1.3620   YZ=    -3.3062   ZZ=    31.9730
   Eigenvalues:    26.3903    30.0963    34.9424
     30  H    Isotropic =    30.7080   Anisotropy =    10.2725
   XX=    32.5752   YX=     4.2208   ZX=     3.0316
   XY=     3.1002   YY=    31.7425   ZY=     2.2040
   XZ=     2.6662   YZ=     3.6822   ZZ=    27.8063
   Eigenvalues:    26.0630    28.5046    37.5563
     31  H    Isotropic =    30.6186   Anisotropy =    10.5632
   XX=    36.6744   YX=    -2.3823   ZX=    -2.1698
   XY=    -2.4042   YY=    27.4196   ZY=     2.0366
   XZ=    -1.1706   YZ=     1.0588   ZZ=    27.7620
   Eigenvalues:    25.9788    28.2163    37.6608
 End of Minotr Frequency-dependent properties file   721 does not exist.
 End of Minotr Frequency-dependent properties file   722 does not exist.

 **********************************************************************

            Population analysis using the SCF density.

 **********************************************************************

 Orbital symmetries:
       Occupied  (A) (A) (A) (A) (A) (A) (A) (A) (A) (A) (A) (A)
                 (A) (A) (A) (A) (A) (A) (A) (A) (A) (A) (A) (A)
                 (A) (A) (A) (A) (A) (A) (A) (A) (A) (A) (A) (A)
                 (A) (A) (A) (A) (A) (A) (A) (A)
       Virtual   (A) (A) (A) (A) (A) (A) (A) (A) (A) (A) (A) (A)
                 (A) (A) (A) (A) (A) (A) (A) (A) (A) (A) (A) (A)
                 (A) (A) (A) (A) (A) (A) (A) (A) (A) (A) (A) (A)
                 (A) (A) (A) (A) (A) (A) (A) (A) (A) (A) (A) (A)
                 (A) (A) (A) (A) (A) (A) (A) (A) (A) (A) (A) (A)
                 (A) (A) (A) (A) (A) (A) (A) (A) (A) (A) (A) (A)
                 (A) (A) (A) (A) (A) (A) (A) (A) (A) (A) (A) (A)
                 (A) (A) (A) (A) (A) (A) (A) (A) (A) (A) (A) (A)
                 (A) (A) (A) (A) (A) (A) (A) (A) (A) (A) (A) (A)
                 (A) (A) (A) (A) (A) (A) (A) (A) (A) (A) (A) (A)
                 (A) (A) (A) (A) (A) (A) (A) (A) (A) (A) (A) (A)
                 (A) (A) (A) (A) (A) (A) (A) (A) (A) (A) (A) (A)
                 (A) (A) (A) (A) (A) (A) (A) (A) (A) (A) (A) (A)
                 (A) (A) (A) (A) (A) (A) (A) (A) (A) (A) (A) (A)
                 (A) (A) (A) (A) (A) (A) (A) (A) (A) (A) (A) (A)
                 (A) (A) (A) (A) (A) (A) (A) (A) (A) (A) (A) (A)
                 (A) (A) (A) (A) (A) (A) (A) (A) (A) (A) (A) (A)
                 (A) (A) (A) (A) (A) (A) (A) (A) (A) (A) (A) (A)
                 (A) (A) (A) (A) (A) (A) (A) (A) (A) (A) (A) (A)
                 (A) (A) (A) (A) (A) (A) (A) (A) (A) (A) (A) (A)
                 (A) (A) (A) (A) (A) (A) (A) (A) (A) (A) (A) (A)
                 (A) (A) (A) (A) (A) (A) (A) (A) (A) (A) (A) (A)
                 (A)
 The electronic state is 1-A.
 Alpha  occ. eigenvalues --  -19.24388 -10.29462 -10.25514 -10.25417 -10.24845
 Alpha  occ. eigenvalues --  -10.24539 -10.24137 -10.24022 -10.23604 -10.23489
 Alpha  occ. eigenvalues --  -10.23397  -1.04882  -0.85940  -0.82329  -0.76853
 Alpha  occ. eigenvalues --   -0.75659  -0.70718  -0.69678  -0.63818  -0.62607
 Alpha  occ. eigenvalues --   -0.58345  -0.55304  -0.51253  -0.48633  -0.47956
 Alpha  occ. eigenvalues --   -0.46660  -0.44717  -0.43852  -0.42531  -0.41813
 Alpha  occ. eigenvalues --   -0.41554  -0.39837  -0.39456  -0.38144  -0.37550
 Alpha  occ. eigenvalues --   -0.37340  -0.35778  -0.34799  -0.33946  -0.33151
 Alpha  occ. eigenvalues --   -0.31969  -0.31368  -0.30239  -0.27823
 Alpha virt. eigenvalues --    0.00628   0.01614   0.02088   0.02422   0.03666
 Alpha virt. eigenvalues --    0.04076   0.04527   0.04977   0.05713   0.06528
 Alpha virt. eigenvalues --    0.07004   0.07535   0.08184   0.08621   0.08801
 Alpha virt. eigenvalues --    0.09215   0.09766   0.10772   0.11225   0.11351
 Alpha virt. eigenvalues --    0.12272   0.12722   0.13305   0.13775   0.14667
 Alpha virt. eigenvalues --    0.14940   0.15505   0.16085   0.16313   0.17129
 Alpha virt. eigenvalues --    0.17453   0.18403   0.18763   0.19303   0.19699
 Alpha virt. eigenvalues --    0.19784   0.20827   0.21026   0.21378   0.21842
 Alpha virt. eigenvalues --    0.22566   0.22958   0.23603   0.24000   0.24560
 Alpha virt. eigenvalues --    0.25051   0.25714   0.26144   0.27116   0.27389
 Alpha virt. eigenvalues --    0.27768   0.27894   0.29629   0.29696   0.30182
 Alpha virt. eigenvalues --    0.30658   0.31100   0.31761   0.32499   0.33144
 Alpha virt. eigenvalues --    0.33926   0.34805   0.35712   0.36427   0.37290
 Alpha virt. eigenvalues --    0.38702   0.39477   0.39831   0.40151   0.41447
 Alpha virt. eigenvalues --    0.42907   0.44386   0.45817   0.49041   0.50963
 Alpha virt. eigenvalues --    0.62586   0.64447   0.65647   0.66127   0.66625
 Alpha virt. eigenvalues --    0.67384   0.68499   0.69658   0.71213   0.71842
 Alpha virt. eigenvalues --    0.73452   0.74533   0.75200   0.76112   0.77854
 Alpha virt. eigenvalues --    0.78481   0.78764   0.81830   0.82117   0.84560
 Alpha virt. eigenvalues --    0.85479   0.87879   0.88534   0.90038   0.91912
 Alpha virt. eigenvalues --    0.93702   0.96741   0.96906   0.99682   1.00318
 Alpha virt. eigenvalues --    1.00673   1.01875   1.02758   1.03286   1.04477
 Alpha virt. eigenvalues --    1.05474   1.07262   1.08522   1.09678   1.11130
 Alpha virt. eigenvalues --    1.12971   1.13200   1.14597   1.15477   1.15983
 Alpha virt. eigenvalues --    1.17724   1.18753   1.19445   1.20356   1.23227
 Alpha virt. eigenvalues --    1.24286   1.25928   1.28450   1.29309   1.31934
 Alpha virt. eigenvalues --    1.34696   1.39710   1.41679   1.42427   1.45660
 Alpha virt. eigenvalues --    1.46730   1.50771   1.51651   1.52547   1.56028
 Alpha virt. eigenvalues --    1.58431   1.59822   1.61617   1.66004   1.67868
 Alpha virt. eigenvalues --    1.68711   1.72226   1.75104   1.78862   1.80126
 Alpha virt. eigenvalues --    1.80749   1.81839   1.84920   1.85233   1.88461
 Alpha virt. eigenvalues --    1.89717   1.89937   1.91240   1.93562   1.94747
 Alpha virt. eigenvalues --    1.95827   1.96661   2.00795   2.02914   2.03091
 Alpha virt. eigenvalues --    2.04201   2.05835   2.06443   2.07119   2.08080
 Alpha virt. eigenvalues --    2.08648   2.12518   2.12897   2.13531   2.14839
 Alpha virt. eigenvalues --    2.16236   2.16409   2.17827   2.18986   2.20170
 Alpha virt. eigenvalues --    2.20351   2.23017   2.24711   2.25608   2.30412
 Alpha virt. eigenvalues --    2.32746   2.34143   2.34479   2.35309   2.37738
 Alpha virt. eigenvalues --    2.38982   2.40220   2.41343   2.42754   2.45029
 Alpha virt. eigenvalues --    2.47592   2.48856   2.51730   2.55539   2.56511
 Alpha virt. eigenvalues --    2.57995   2.58871   2.61617   2.63567   2.65011
 Alpha virt. eigenvalues --    2.67272   2.67851   2.69711   2.70254   2.72150
 Alpha virt. eigenvalues --    2.73247   2.75090   2.76390   2.77348   2.78505
 Alpha virt. eigenvalues --    2.79816   2.80778   2.82991   2.83626   2.85153
 Alpha virt. eigenvalues --    2.86610   2.88655   2.89249   2.91234   2.91708
 Alpha virt. eigenvalues --    2.92942   2.93526   2.96894   2.97590   2.98957
 Alpha virt. eigenvalues --    3.01024   3.01901   3.05338   3.17067   3.28915
 Alpha virt. eigenvalues --    3.29322   3.30842   3.35260   3.38312   3.39486
 Alpha virt. eigenvalues --    3.40919   3.42402   3.48269   3.49106   3.50235
 Alpha virt. eigenvalues --    3.51919   3.53311   3.53399   3.55334   3.56607
 Alpha virt. eigenvalues --    3.58307   3.59473   3.62340   3.63637   4.34185
 Alpha virt. eigenvalues --    4.39537   4.41922   4.55343   4.58502   4.61663
 Alpha virt. eigenvalues --    4.63305   4.75535   4.83698   4.89315   4.96498
          Condensed to atoms (all electrons):
              1          2          3          4          5          6
     1  C    7.519594   0.237519   0.249690   0.003728  -0.343104  -0.416633
     2  C    0.237519   8.600871   0.378485  -2.019147  -0.057479  -0.654349
     3  C    0.249690   0.378485   6.036041  -0.166508   0.109817  -0.205645
     4  C    0.003728  -2.019147  -0.166508   8.240506  -0.435477   0.049269
     5  C   -0.343104  -0.057479   0.109817  -0.435477   6.229090  -0.136229
     6  C   -0.416633  -0.654349  -0.205645   0.049269  -0.136229   6.507851
     7  C   -1.126933  -0.606781  -0.222141   0.226341   0.176036   0.313966
     8  O    0.013461   0.416736  -0.020793  -0.095703  -0.028868  -0.175955
     9  C   -0.112763  -0.033637  -0.285062  -0.311562   0.148264   0.208544
    10  C    0.052149   0.126684  -0.015038  -0.092649  -0.143160  -0.035110
    11  C    0.005503  -0.174036   0.007667   0.208868   0.015040  -0.009399
    12  H    0.166667  -0.110379  -0.071039   0.054508   0.044145   0.046607
    13  H    0.031819   0.235010   0.001322   0.001854  -0.020544   0.026959
    14  H   -0.001335  -0.044750   0.330128   0.048963  -0.018696  -0.010586
    15  H    0.028266   0.027711   0.444671  -0.102345  -0.054333  -0.009033
    16  H   -0.019115   0.016407  -0.018049   0.237250   0.049383   0.030113
    17  H   -0.010167   0.010058  -0.003979   0.032537   0.292091   0.035970
    18  H   -0.124735  -0.057187  -0.105559   0.072714   0.477153   0.025263
    19  H   -0.011520  -0.004558   0.002748   0.044544   0.031407   0.306778
    20  H   -0.097754  -0.131829  -0.027729   0.078751   0.014052   0.420826
    21  H   -0.107399  -0.001061  -0.006399   0.003518   0.024511   0.001019
    22  H   -0.155398  -0.013632  -0.006963   0.006581   0.013820   0.011233
    23  H   -0.119891  -0.010406  -0.000307   0.002916  -0.002339   0.032770
    24  H    0.031434  -0.058664  -0.042567   0.059358  -0.010235  -0.011074
    25  H    0.003999  -0.027329   0.016642  -0.021203  -0.021865   0.015029
    26  H    0.004840  -0.008219   0.024673  -0.009301  -0.028626   0.005738
    27  H    0.001465   0.044709  -0.030378  -0.012265   0.014758  -0.031099
    28  H   -0.000218   0.006773   0.001449   0.026775   0.000056  -0.002634
    29  H    0.001386   0.000658  -0.002406   0.008152  -0.009934   0.001399
    30  H    0.000123  -0.007507   0.018938  -0.006901   0.002480   0.001181
    31  H   -0.000319  -0.004540   0.001293   0.031285  -0.000259  -0.000107
              7          8          9         10         11         12
     1  C   -1.126933   0.013461  -0.112763   0.052149   0.005503   0.166667
     2  C   -0.606781   0.416736  -0.033637   0.126684  -0.174036  -0.110379
     3  C   -0.222141  -0.020793  -0.285062  -0.015038   0.007667  -0.071039
     4  C    0.226341  -0.095703  -0.311562  -0.092649   0.208868   0.054508
     5  C    0.176036  -0.028868   0.148264  -0.143160   0.015040   0.044145
     6  C    0.313966  -0.175955   0.208544  -0.035110  -0.009399   0.046607
     7  C    6.419929   0.036498   0.028634  -0.017080   0.007882   0.122516
     8  O    0.036498   8.152494  -0.012594   0.005523  -0.002066   0.006519
     9  C    0.028634  -0.012594   6.568505  -0.015686  -0.143473   0.001365
    10  C   -0.017080   0.005523  -0.015686   5.535171  -0.097843  -0.002475
    11  C    0.007882  -0.002066  -0.143473  -0.097843   5.517110   0.000813
    12  H    0.122516   0.006519   0.001365  -0.002475   0.000813   0.596442
    13  H    0.008000  -0.054925   0.023339   0.005308   0.006488  -0.000064
    14  H    0.009395  -0.000371  -0.000593  -0.001619   0.008665   0.002778
    15  H   -0.003662   0.000057   0.015150  -0.011573  -0.009944  -0.000022
    16  H    0.000716  -0.012323   0.021711  -0.002733  -0.025783  -0.000069
    17  H   -0.030319  -0.000007  -0.002366   0.004866  -0.001666  -0.004870
    18  H    0.025627   0.000449   0.004108  -0.011281   0.005345   0.005287
    19  H   -0.030075  -0.006436  -0.005602  -0.000964   0.000581  -0.004350
    20  H    0.051174   0.010622   0.003724  -0.019175   0.003124   0.005353
    21  H    0.445786  -0.000113   0.000143  -0.000120   0.000023  -0.003832
    22  H    0.492278   0.000098   0.000604  -0.000433   0.000158   0.005066
    23  H    0.456080   0.000061   0.000079   0.000004  -0.000036  -0.003787
    24  H    0.020001   0.243289   0.008714   0.002537   0.001040   0.001683
    25  H   -0.000613   0.000692   0.282442   0.014367   0.004225  -0.000001
    26  H   -0.000147   0.000033  -0.083265   0.446779  -0.004452  -0.000003
    27  H   -0.001162  -0.000257  -0.047924   0.419549  -0.000916  -0.000009
    28  H   -0.000403   0.000012  -0.119037   0.441956   0.003930   0.000000
    29  H    0.000001   0.000021  -0.101316   0.002013   0.448710   0.000000
    30  H    0.000088  -0.000207  -0.084367   0.003135   0.431889   0.000000
    31  H   -0.000024   0.000017  -0.115463   0.005724   0.441473   0.000000
             13         14         15         16         17         18
     1  C    0.031819  -0.001335   0.028266  -0.019115  -0.010167  -0.124735
     2  C    0.235010  -0.044750   0.027711   0.016407   0.010058  -0.057187
     3  C    0.001322   0.330128   0.444671  -0.018049  -0.003979  -0.105559
     4  C    0.001854   0.048963  -0.102345   0.237250   0.032537   0.072714
     5  C   -0.020544  -0.018696  -0.054333   0.049383   0.292091   0.477153
     6  C    0.026959  -0.010586  -0.009033   0.030113   0.035970   0.025263
     7  C    0.008000   0.009395  -0.003662   0.000716  -0.030319   0.025627
     8  O   -0.054925  -0.000371   0.000057  -0.012323  -0.000007   0.000449
     9  C    0.023339  -0.000593   0.015150   0.021711  -0.002366   0.004108
    10  C    0.005308  -0.001619  -0.011573  -0.002733   0.004866  -0.011281
    11  C    0.006488   0.008665  -0.009944  -0.025783  -0.001666   0.005345
    12  H   -0.000064   0.002778  -0.000022  -0.000069  -0.004870   0.005287
    13  H    0.590886  -0.000138  -0.000110  -0.003279   0.000011  -0.000044
    14  H   -0.000138   0.555247  -0.027512  -0.008003  -0.005519   0.004642
    15  H   -0.000110  -0.027512   0.546822  -0.000522  -0.002166  -0.003829
    16  H   -0.003279  -0.008003  -0.000522   0.567314  -0.000125  -0.000136
    17  H    0.000011  -0.005519  -0.002166  -0.000125   0.555285  -0.029938
    18  H   -0.000044   0.004642  -0.003829  -0.000136  -0.029938   0.548036
    19  H   -0.004193  -0.000019   0.000010  -0.000153  -0.000132   0.000006
    20  H   -0.002997   0.000051  -0.000010  -0.000069  -0.000030   0.002764
    21  H   -0.000002   0.000001   0.000002   0.000000   0.000011   0.000008
    22  H   -0.000002   0.000001   0.000000   0.000000  -0.000216   0.003334
    23  H    0.000002  -0.000001  -0.000003   0.000000   0.002842  -0.000209
    24  H    0.007482   0.000503  -0.000132  -0.001620   0.000018   0.000003
    25  H    0.006223  -0.000130   0.000097  -0.003808   0.000004  -0.000035
    26  H    0.000027  -0.000023   0.000263  -0.000043   0.000147   0.000384
    27  H   -0.000014  -0.000015   0.000179  -0.000053   0.000022  -0.000808
    28  H   -0.000029   0.000003  -0.000038  -0.000107  -0.000002   0.000183
    29  H    0.000003  -0.000119   0.001866  -0.000464   0.000005  -0.000002
    30  H    0.000011  -0.000025   0.000030   0.003921   0.000000  -0.000002
    31  H   -0.000008   0.000001  -0.000094   0.000198   0.000000  -0.000002
             19         20         21         22         23         24
     1  C   -0.011520  -0.097754  -0.107399  -0.155398  -0.119891   0.031434
     2  C   -0.004558  -0.131829  -0.001061  -0.013632  -0.010406  -0.058664
     3  C    0.002748  -0.027729  -0.006399  -0.006963  -0.000307  -0.042567
     4  C    0.044544   0.078751   0.003518   0.006581   0.002916   0.059358
     5  C    0.031407   0.014052   0.024511   0.013820  -0.002339  -0.010235
     6  C    0.306778   0.420826   0.001019   0.011233   0.032770  -0.011074
     7  C   -0.030075   0.051174   0.445786   0.492278   0.456080   0.020001
     8  O   -0.006436   0.010622  -0.000113   0.000098   0.000061   0.243289
     9  C   -0.005602   0.003724   0.000143   0.000604   0.000079   0.008714
    10  C   -0.000964  -0.019175  -0.000120  -0.000433   0.000004   0.002537
    11  C    0.000581   0.003124   0.000023   0.000158  -0.000036   0.001040
    12  H   -0.004350   0.005353  -0.003832   0.005066  -0.003787   0.001683
    13  H   -0.004193  -0.002997  -0.000002  -0.000002   0.000002   0.007482
    14  H   -0.000019   0.000051   0.000001   0.000001  -0.000001   0.000503
    15  H    0.000010  -0.000010   0.000002   0.000000  -0.000003  -0.000132
    16  H   -0.000153  -0.000069   0.000000   0.000000   0.000000  -0.001620
    17  H   -0.000132  -0.000030   0.000011  -0.000216   0.002842   0.000018
    18  H    0.000006   0.002764   0.000008   0.003334  -0.000209   0.000003
    19  H    0.533533  -0.027542   0.002694  -0.000138  -0.000008  -0.000860
    20  H   -0.027542   0.558026  -0.000281   0.003329   0.000010  -0.000076
    21  H    0.002694  -0.000281   0.528600  -0.027663  -0.025304  -0.000003
    22  H   -0.000138   0.003329  -0.027663   0.533241  -0.027763   0.000002
    23  H   -0.000008   0.000010  -0.025304  -0.027763   0.531599   0.000009
    24  H   -0.000860  -0.000076  -0.000003   0.000002   0.000009   0.397458
    25  H   -0.000014   0.000039   0.000000   0.000000   0.000000   0.000001
    26  H   -0.000001  -0.000015   0.000000  -0.000008   0.000000   0.000000
    27  H    0.000113   0.002282   0.000001  -0.000012   0.000000  -0.000001
    28  H   -0.000001   0.000071   0.000000   0.000000   0.000000   0.000000
    29  H    0.000000   0.000001   0.000000   0.000000   0.000000  -0.000001
    30  H    0.000000   0.000000   0.000000   0.000000   0.000000   0.000003
    31  H    0.000000  -0.000001   0.000000   0.000000   0.000000   0.000000
             25         26         27         28         29         30
     1  C    0.003999   0.004840   0.001465  -0.000218   0.001386   0.000123
     2  C   -0.027329  -0.008219   0.044709   0.006773   0.000658  -0.007507
     3  C    0.016642   0.024673  -0.030378   0.001449  -0.002406   0.018938
     4  C   -0.021203  -0.009301  -0.012265   0.026775   0.008152  -0.006901
     5  C   -0.021865  -0.028626   0.014758   0.000056  -0.009934   0.002480
     6  C    0.015029   0.005738  -0.031099  -0.002634   0.001399   0.001181
     7  C   -0.000613  -0.000147  -0.001162  -0.000403   0.000001   0.000088
     8  O    0.000692   0.000033  -0.000257   0.000012   0.000021  -0.000207
     9  C    0.282442  -0.083265  -0.047924  -0.119037  -0.101316  -0.084367
    10  C    0.014367   0.446779   0.419549   0.441956   0.002013   0.003135
    11  C    0.004225  -0.004452  -0.000916   0.003930   0.448710   0.431889
    12  H   -0.000001  -0.000003  -0.000009   0.000000   0.000000   0.000000
    13  H    0.006223   0.000027  -0.000014  -0.000029   0.000003   0.000011
    14  H   -0.000130  -0.000023  -0.000015   0.000003  -0.000119  -0.000025
    15  H    0.000097   0.000263   0.000179  -0.000038   0.001866   0.000030
    16  H   -0.003808  -0.000043  -0.000053  -0.000107  -0.000464   0.003921
    17  H    0.000004   0.000147   0.000022  -0.000002   0.000005   0.000000
    18  H   -0.000035   0.000384  -0.000808   0.000183  -0.000002  -0.000002
    19  H   -0.000014  -0.000001   0.000113  -0.000001   0.000000   0.000000
    20  H    0.000039  -0.000015   0.002282   0.000071   0.000001   0.000000
    21  H    0.000000   0.000000   0.000001   0.000000   0.000000   0.000000
    22  H    0.000000  -0.000008  -0.000012   0.000000   0.000000   0.000000
    23  H    0.000000   0.000000   0.000000   0.000000   0.000000   0.000000
    24  H    0.000001   0.000000  -0.000001   0.000000  -0.000001   0.000003
    25  H    0.587494   0.005092  -0.003476  -0.004137   0.005092  -0.003741
    26  H    0.005092   0.535719  -0.028593  -0.028317   0.003262   0.000018
    27  H   -0.003476  -0.028593   0.546033  -0.026324  -0.000005  -0.000140
    28  H   -0.004137  -0.028317  -0.026324   0.532598  -0.000154   0.000079
    29  H    0.005092   0.003262  -0.000005  -0.000154   0.538083  -0.028223
    30  H   -0.003741   0.000018  -0.000140   0.000079  -0.028223   0.530712
    31  H   -0.003809  -0.000237   0.000048   0.002750  -0.028277  -0.024740
             31
     1  C   -0.000319
     2  C   -0.004540
     3  C    0.001293
     4  C    0.031285
     5  C   -0.000259
     6  C   -0.000107
     7  C   -0.000024
     8  O    0.000017
     9  C   -0.115463
    10  C    0.005724
    11  C    0.441473
    12  H    0.000000
    13  H   -0.000008
    14  H    0.000001
    15  H   -0.000094
    16  H    0.000198
    17  H    0.000000
    18  H   -0.000002
    19  H    0.000000
    20  H   -0.000001
    21  H    0.000000
    22  H    0.000000
    23  H    0.000000
    24  H    0.000000
    25  H   -0.003809
    26  H   -0.000237
    27  H    0.000048
    28  H    0.002750
    29  H   -0.028277
    30  H   -0.024740
    31  H    0.530972
 Mulliken atomic charges:
              1
     1  C    0.295640
     2  C   -0.076130
     3  C   -0.393002
     4  C   -0.165357
     5  C   -0.330958
     6  C   -0.342664
     7  C   -0.801607
     8  O   -0.475965
     9  C    0.159386
    10  C   -0.598831
    11  C   -0.648920
    12  H    0.141150
    13  H    0.141603
    14  H    0.159073
    15  H    0.160202
    16  H    0.169442
    17  H    0.157634
    18  H    0.158459
    19  H    0.174152
    20  H    0.153304
    21  H    0.165862
    22  H    0.162483
    23  H    0.163682
    24  H    0.351697
    25  H    0.148722
    26  H    0.164274
    27  H    0.154291
    28  H    0.164764
    29  H    0.160250
    30  H    0.163247
    31  H    0.164118
 Sum of Mulliken atomic charges =   0.00000
 Mulliken charges with hydrogens summed into heavy atoms:
              1
     1  C    0.436790
     2  C    0.065473
     3  C   -0.073727
     4  C    0.004085
     5  C   -0.014864
     6  C   -0.015208
     7  C   -0.309581
     8  O   -0.124268
     9  C    0.308108
    10  C   -0.115502
    11  C   -0.161306
 Sum of Mulliken charges with hydrogens summed into heavy atoms =   0.00000
 Electronic spatial extent (au):  <R**2>=           2050.9395
 Charge=              0.0000 electrons
 Dipole moment (field-independent basis, Debye):
    X=             -0.0044    Y=             -1.9974    Z=              0.5732  Tot=              2.0780
 Quadrupole moment (field-independent basis, Debye-Ang):
   XX=            -70.5388   YY=            -80.6250   ZZ=            -69.6370
   XY=              0.4784   XZ=             -2.1277   YZ=              1.5522
 Traceless Quadrupole moment (field-independent basis, Debye-Ang):
   XX=              3.0615   YY=             -7.0247   ZZ=              3.9633
   XY=              0.4784   XZ=             -2.1277   YZ=              1.5522
 Octapole moment (field-independent basis, Debye-Ang**2):
  XXX=             -3.9421  YYY=            -17.9631  ZZZ=              1.3691  XYY=              3.4632
  XXY=              5.8594  XXZ=              0.2674  XZZ=             -3.0153  YZZ=              6.9711
  YYZ=              5.3816  XYZ=             -3.0325
 Hexadecapole moment (field-independent basis, Debye-Ang**3):
 XXXX=          -1714.7840 YYYY=           -791.0971 ZZZZ=           -426.5589 XXXY=            -16.5416
 XXXZ=            -16.9605 YYYX=              7.7398 YYYZ=             11.3684 ZZZX=             -7.2547
 ZZZY=             -0.1643 XXYY=           -400.0021 XXZZ=           -349.6898 YYZZ=           -174.2735
 XXYZ=              3.8802 YYXZ=             -9.8967 ZZXY=             -6.3118
 N-N= 6.956656024122D+02 E-N=-2.476401323262D+03  KE= 4.636892524746D+02
 1\1\GINC-COMPUTE-10-6\SP\RmPW1PW91\6-31+G(d,p)\C10H20O1\ASAROTTI.IQUIR
 \19-Sep-2024\0\\# mPW1PW91/6-31+G** nmr scrf=(pcm,solvent=benzene)\\co
 mment\\0,1\C,0,-2.000553,-0.290184,0.205678\C,0,-0.163344,1.315586,-0.
 588959\C,0,0.236646,-0.186299,1.440622\C,0,0.906552,0.631002,0.305236\
 C,0,-0.942156,-1.07365,1.000547\C,0,-1.335868,0.407017,-0.994823\C,0,-
 3.166812,-1.182313,-0.232821\O,0,-0.656133,2.506046,0.046852\C,0,2.039
 943,-0.097327,-0.48145\C,0,1.705209,-1.47041,-1.088224\C,0,3.307291,-0
 .217168,0.384374\H,0,-2.413912,0.488711,0.868714\H,0,0.325729,1.693155
 ,-1.494502\H,0,-0.137408,0.520894,2.196597\H,0,0.986267,-0.79313,1.963
 067\H,0,1.414789,1.478525,0.784039\H,0,-1.403025,-1.527435,1.888644\H,
 0,-0.585974,-1.906242,0.380894\H,0,-2.068677,1.019909,-1.534432\H,0,-0
 .985001,-0.359676,-1.698519\H,0,-3.926243,-0.606945,-0.775487\H,0,-2.8
 1788,-1.983047,-0.89769\H,0,-3.65365,-1.654089,0.629258\H,0,-1.112695,
 2.238976,0.859594\H,0,2.293142,0.570886,-1.319156\H,0,1.507918,-2.2185
 77,-0.311603\H,0,0.838114,-1.439727,-1.754824\H,0,2.55621,-1.834017,-1
 .676836\H,0,3.146543,-0.874932,1.247654\H,0,3.62679,0.760243,0.764171\
 H,0,4.136581,-0.639367,-0.195474\\Version=AM64L-G09RevC.01\State=1-A\H
 F=-468.2765426\RMSD=9.719e-09\Dipole=-0.0017451,-0.7858318,0.2255083\Q
 uadrupole=2.2761328,-5.2227139,2.9465811,0.3557065,-1.5818945,1.154028
 \PG=C01 [X(C10H20O1)]\\@


 TERRY FORSTER, PORTLY ATLANTA BRAVES RELIEVER,
 ANNOUNCING THAT HE WAS GOING TO A FAT FARM:
 "A WAIST IS A TERRIBLE THING TO MIND."
 Job cpu time:  0 days  0 hours 12 minutes  0.3 seconds.
 File lengths (MBytes):  RWF=    120 Int=      0 D2E=      0 Chk=      7 Scr=      1
 Normal termination of Gaussian 09 at Thu Sep 19 09:14:41 2024.
