 Entering Gaussian System, Link 0=g09
 Input=/home/asarotti.iquir/SCF2/02_Mentol14_OptB_NMR_benzene.gjc
 Output=/home/asarotti.iquir/SCF2/02_Mentol14_OptB_NMR_benzene.log
 Initial command:
 /opt/ohpc/pub/apps/software/Gaussian/09/AMD64.SSE4a-enabled/g09/l1.exe /local/asarotti.iquir/Gau-2483582.inp -scrdir=/local/asarotti.iquir/
 Entering Link 1 = /opt/ohpc/pub/apps/software/Gaussian/09/AMD64.SSE4a-enabled/g09/l1.exe PID=   2483583.
  
 Copyright (c) 1988,1990,1992,1993,1995,1998,2003,2009,2011,
            Gaussian, Inc.  All Rights Reserved.
  
 This is part of the Gaussian(R) 09 program.  It is based on
 the Gaussian(R) 03 system (copyright 2003, Gaussian, Inc.),
 the Gaussian(R) 98 system (copyright 1998, Gaussian, Inc.),
 the Gaussian(R) 94 system (copyright 1995, Gaussian, Inc.),
 the Gaussian 92(TM) system (copyright 1992, Gaussian, Inc.),
 the Gaussian 90(TM) system (copyright 1990, Gaussian, Inc.),
 the Gaussian 88(TM) system (copyright 1988, Gaussian, Inc.),
 the Gaussian 86(TM) system (copyright 1986, Carnegie Mellon
 University), and the Gaussian 82(TM) system (copyright 1983,
 Carnegie Mellon University). Gaussian is a federally registered
 trademark of Gaussian, Inc.
  
 This software contains proprietary and confidential information,
 including trade secrets, belonging to Gaussian, Inc.
  
 This software is provided under written license and may be
 used, copied, transmitted, or stored only in accord with that
 written license.
  
 The following legend is applicable only to US Government
 contracts under FAR:
  
                    RESTRICTED RIGHTS LEGEND
  
 Use, reproduction and disclosure by the US Government is
 subject to restrictions as set forth in subparagraphs (a)
 and (c) of the Commercial Computer Software - Restricted
 Rights clause in FAR 52.227-19.
  
 Gaussian, Inc.
 340 Quinnipiac St., Bldg. 40, Wallingford CT 06492
  
  
 ---------------------------------------------------------------
 Warning -- This program may not be used in any manner that
 competes with the business of Gaussian, Inc. or will provide
 assistance to any competitor of Gaussian, Inc.  The licensee
 of this program is prohibited from giving any competitor of
 Gaussian, Inc. access to this program.  By using this program,
 the user acknowledges that Gaussian, Inc. is engaged in the
 business of creating and licensing software in the field of
 computational chemistry and represents and warrants to the
 licensee that it is not a competitor of Gaussian, Inc. and that
 it will not use this program in any manner prohibited above.
 ---------------------------------------------------------------
  

 Cite this work as:
 Gaussian 09, Revision C.01,
 M. J. Frisch, G. W. Trucks, H. B. Schlegel, G. E. Scuseria, 
 M. A. Robb, J. R. Cheeseman, G. Scalmani, V. Barone, B. Mennucci, 
 G. A. Petersson, H. Nakatsuji, M. Caricato, X. Li, H. P. Hratchian, 
 A. F. Izmaylov, J. Bloino, G. Zheng, J. L. Sonnenberg, M. Hada, 
 M. Ehara, K. Toyota, R. Fukuda, J. Hasegawa, M. Ishida, T. Nakajima, 
 Y. Honda, O. Kitao, H. Nakai, T. Vreven, J. A. Montgomery, Jr., 
 J. E. Peralta, F. Ogliaro, M. Bearpark, J. J. Heyd, E. Brothers, 
 K. N. Kudin, V. N. Staroverov, T. Keith, R. Kobayashi, J. Normand, 
 K. Raghavachari, A. Rendell, J. C. Burant, S. S. Iyengar, J. Tomasi, 
 M. Cossi, N. Rega, J. M. Millam, M. Klene, J. E. Knox, J. B. Cross, 
 V. Bakken, C. Adamo, J. Jaramillo, R. Gomperts, R. E. Stratmann, 
 O. Yazyev, A. J. Austin, R. Cammi, C. Pomelli, J. W. Ochterski, 
 R. L. Martin, K. Morokuma, V. G. Zakrzewski, G. A. Voth, 
 P. Salvador, J. J. Dannenberg, S. Dapprich, A. D. Daniels, 
 O. Farkas, J. B. Foresman, J. V. Ortiz, J. Cioslowski, 
 and D. J. Fox, Gaussian, Inc., Wallingford CT, 2010.
 
 ******************************************
 Gaussian 09:  AM64L-G09RevC.01 23-Sep-2011
                19-Sep-2024 
 ******************************************
 %nprocshared=4
 Will use up to    4 processors via shared memory.
 %mem=100mw
 --------------------------------------------------
 # mPW1PW91/6-31+G** nmr scrf=(pcm,solvent=benzene)
 --------------------------------------------------
 1/38=1/1;
 2/12=2,17=6,18=5,40=1/2;
 3/5=1,6=6,7=111,11=2,16=1,25=1,30=1,70=2201,72=12,74=-7/1,2,8,3;
 4//1;
 5/5=2,38=5,53=12/2;
 8/6=1,10=90,11=11/1;
 10/13=100,45=16/2;
 6/7=2,8=2,9=2,10=2,28=1/1;
 99/9=1/99;
 -------
 comment
 -------
 Charge =  0 Multiplicity = 1
 Symbolic Z-Matrix:
 6                    -2.00094  -0.29065   0.21065 
 6                    -0.16107   1.30512  -0.57779 
 6                     0.23811  -0.20488   1.43822 
 6                     0.9053    0.62488   0.31196 
 6                    -0.94213  -1.08619   0.99174 
 6                    -1.33377   0.40138  -0.98881 
 6                    -3.17534  -1.1728   -0.22559 
 8                    -0.64212   2.41701   0.19642 
 6                     2.04664  -0.08007  -0.48199 
 6                     1.71902  -1.44393  -1.1129 
 6                     3.30942  -0.20927   0.38879 
 1                    -2.38509   0.49843   0.87276 
 1                     0.3322    1.6868   -1.48782 
 1                    -0.135     0.50077   2.1907 
 1                     0.98995  -0.82144   1.94669 
 1                     1.4008    1.47329   0.80236 
 1                    -1.40257  -1.54427   1.8779 
 1                    -0.59233  -1.91731   0.36483 
 1                    -2.07214   1.00775  -1.53747 
 1                    -0.98333  -0.35625  -1.70246 
 1                    -3.93546  -0.59193  -0.7627 
 1                    -2.83889  -1.97665  -0.89362 
 1                    -3.66172  -1.64175   0.63834 
 1                    -1.37184   2.82326  -0.29766 
 1                     2.30219   0.603    -1.30708 
 1                     1.51022  -2.20213  -0.34936 
 1                     0.85976  -1.40236  -1.7892 
 1                     2.57645  -1.80042  -1.69672 
 1                     3.14709  -0.88343   1.23877 
 1                     3.62075   0.76268   0.78898 
 1                     4.14449  -0.61567  -0.19414 
 
                          Input orientation:                          
 ---------------------------------------------------------------------
 Center     Atomic      Atomic             Coordinates (Angstroms)
 Number     Number       Type             X           Y           Z
 ---------------------------------------------------------------------
      1          6           0       -2.000944   -0.290654    0.210648
      2          6           0       -0.161065    1.305124   -0.577793
      3          6           0        0.238113   -0.204882    1.438224
      4          6           0        0.905300    0.624875    0.311955
      5          6           0       -0.942134   -1.086188    0.991735
      6          6           0       -1.333765    0.401384   -0.988811
      7          6           0       -3.175341   -1.172801   -0.225592
      8          8           0       -0.642119    2.417007    0.196419
      9          6           0        2.046635   -0.080065   -0.481994
     10          6           0        1.719021   -1.443926   -1.112897
     11          6           0        3.309420   -0.209272    0.388786
     12          1           0       -2.385094    0.498430    0.872755
     13          1           0        0.332200    1.686799   -1.487820
     14          1           0       -0.135000    0.500770    2.190697
     15          1           0        0.989952   -0.821439    1.946687
     16          1           0        1.400795    1.473293    0.802358
     17          1           0       -1.402574   -1.544272    1.877904
     18          1           0       -0.592333   -1.917312    0.364831
     19          1           0       -2.072138    1.007753   -1.537467
     20          1           0       -0.983329   -0.356252   -1.702455
     21          1           0       -3.935462   -0.591926   -0.762700
     22          1           0       -2.838890   -1.976648   -0.893622
     23          1           0       -3.661721   -1.641751    0.638338
     24          1           0       -1.371837    2.823259   -0.297662
     25          1           0        2.302191    0.603003   -1.307078
     26          1           0        1.510224   -2.202133   -0.349364
     27          1           0        0.859758   -1.402363   -1.789203
     28          1           0        2.576445   -1.800416   -1.696717
     29          1           0        3.147093   -0.883434    1.238765
     30          1           0        3.620750    0.762683    0.788978
     31          1           0        4.144487   -0.615673   -0.194140
 ---------------------------------------------------------------------
                    Distance matrix (angstroms):
                    1          2          3          4          5
     1  C    0.000000
     2  C    2.559942   0.000000
     3  C    2.554932   2.550252   0.000000
     4  C    3.048723   1.546455   1.549876   0.000000
     5  C    1.537547   2.965107   1.539167   2.608227   0.000000
     6  C    1.537123   1.536524   2.954464   2.599106   2.507750
     7  C    1.532220   3.917910   3.918778   4.491350   2.544917
     8  O    3.029527   1.437742   3.031698   2.370568   3.604846
     9  C    4.111812   2.608039   2.640751   1.558827   3.480934
    10  C    4.113386   3.373179   3.199459   2.640508   3.411627
    11  C    5.313974   3.907932   3.245653   2.545878   4.382721
    12  H    1.099368   2.775095   2.774098   3.340236   2.146463
    13  H    3.498382   1.103239   3.485548   2.166868   3.932121
    14  H    2.833495   2.883089   1.096984   2.151115   2.146488
    15  H    3.498717   3.495727   1.097242   2.184339   2.171401
    16  H    3.877300   2.091053   2.138323   1.098100   3.475072
    17  H    2.170103   3.961168   2.163132   3.533225   1.098700
    18  H    2.157307   3.385059   2.185001   2.951002   1.098242
    19  H    2.178723   2.159075   3.957585   3.525918   3.472515
    20  H    2.167904   2.168214   3.373233   2.930423   2.791624
    21  H    2.186443   4.228364   4.734195   5.105729   3.504618
    22  H    2.182691   4.247414   4.247895   4.715962   2.818718
    23  H    2.183246   4.734727   4.232389   5.108992   2.798159
    24  H    3.217236   1.961932   3.843810   3.223333   4.138957
    25  H    4.649633   2.663167   3.528424   2.138469   4.320133
    26  H    4.036789   3.891817   2.966943   2.965679   3.009641
    27  H    3.663184   3.136890   3.498098   2.920040   3.328723
    28  H    5.183620   4.288395   4.223906   3.565042   4.485342
    29  H    5.283058   4.362749   2.993724   2.856503   4.101696
    30  H    5.748689   4.057638   3.577700   2.760473   4.927408
    31  H    6.167318   4.730162   4.253601   3.505342   5.244177
                    6          7          8          9         10
     6  C    0.000000
     7  C    2.540072   0.000000
     8  O    2.438418   4.413845   0.000000
     9  C    3.451921   5.341240   3.731623   0.000000
    10  C    3.569323   4.981526   4.711273   1.538014   0.000000
    11  C    4.881582   6.584677   4.748579   1.539343   2.511731
    12  H    2.140126   2.150318   2.678867   4.670142   4.955736
    13  H    2.162577   4.698231   2.078259   2.659470   3.444601
    14  H    3.399439   4.228826   2.811811   3.498597   4.258282
    15  H    3.938541   4.710830   4.026739   2.750401   3.206257
    16  H    3.440217   5.385120   2.330505   2.116504   3.504231
    17  H    3.465309   2.775858   4.370059   4.428325   4.324270
    18  H    2.785394   2.752240   4.337875   3.325168   2.783906
    19  H    1.101772   2.773606   2.652793   4.388811   4.534741
    20  H    1.098228   2.766368   3.378330   3.278183   2.972088
    21  H    2.794033   1.097126   4.562860   6.010514   5.729024
    22  H    2.815937   1.098013   5.031719   5.256883   4.594173
    23  H    3.498770   1.096747   5.078071   6.023233   5.662009
    24  H    2.518852   4.384782   0.970384   4.488788   5.331686
    25  H    3.655423   5.858878   3.770951   1.101206   2.137221
    26  H    3.908384   4.798892   5.125126   2.192829   1.096110
    27  H    2.950538   4.333544   4.559157   2.205889   1.094281
    28  H    4.542994   5.970021   5.632919   2.171603   1.096862
    29  H    5.166328   6.496249   5.132010   2.194862   2.807820
    30  H    5.276200   7.138789   4.610853   2.191673   3.478911
    31  H    5.628246   7.341067   5.679902   2.184198   2.722683
                   11         12         13         14         15
    11  C    0.000000
    12  H    5.758694   0.000000
    13  H    3.997571   3.790544   0.000000
    14  H    3.951591   2.607662   3.893126   0.000000
    15  H    2.860373   3.779725   4.303456   1.753081   0.000000
    16  H    2.577773   3.910022   2.536217   2.287346   2.596936
    17  H    5.118846   2.479577   4.977686   2.426269   2.500280
    18  H    4.259302   3.050867   4.156524   3.064321   2.491351
    19  H    5.844037   2.483248   2.498882   4.231872   4.986148
    20  H    4.777299   3.054036   2.439414   4.075633   4.174503
    21  H    7.345792   2.503444   4.891965   4.935590   5.626114
    22  H    6.524562   3.074415   4.881570   4.791831   4.905292
    23  H    7.121171   2.503019   5.617045   4.408852   4.901301
    24  H    5.619753   2.793098   2.368915   3.621554   4.888658
    25  H    2.133133   5.170420   2.255692   4.264362   3.786554
    26  H    2.784505   4.894907   4.219907   4.057629   2.729258
    27  H    3.488258   4.607396   3.148344   4.522285   3.783028
    28  H    2.723658   6.041833   4.152221   5.268717   4.092646
    29  H    1.096954   5.713896   4.686575   3.687049   2.271179
    30  H    1.096256   6.012238   4.105163   4.017346   3.281894
    31  H    1.096495   6.709316   4.637728   5.024729   3.817928
                   16         17         18         19         20
    16  H    0.000000
    17  H    4.256921   0.000000
    18  H    3.957296   1.756428   0.000000
    19  H    4.213404   4.315774   3.790061   0.000000
    20  H    3.912208   3.795541   2.619820   1.753065   0.000000
    21  H    5.932131   3.780909   3.768884   2.575114   3.107052
    22  H    5.723056   3.151398   2.575702   3.147871   2.592875
    23  H    5.946383   2.578715   3.093846   3.778991   3.782275
    24  H    3.274132   4.879483   4.849695   2.307293   3.497667
    25  H    2.453495   5.336683   4.186351   4.399052   3.445451
    26  H    3.853206   3.725305   2.238737   4.954622   3.384662
    27  H    3.908747   4.311143   2.648321   3.803688   2.121048
    28  H    4.283071   5.355009   3.782169   5.433277   3.841567
    29  H    2.965497   4.641624   3.976930   6.206805   5.097949
    30  H    2.330954   5.633967   5.011222   6.154785   5.353204
    31  H    3.589517   5.993792   4.944105   6.564028   5.351337
                   21         22         23         24         25
    21  H    0.000000
    22  H    1.771176   0.000000
    23  H    1.771997   1.770906   0.000000
    24  H    4.295570   5.054357   5.104506   0.000000
    25  H    6.374364   5.766824   6.662718   4.409868   0.000000
    26  H    5.693778   4.388833   5.295149   5.793403   3.068096
    27  H    4.970377   3.848619   5.137512   5.006056   2.516853
    28  H    6.688630   5.477397   6.662760   6.238963   2.450195
    29  H    7.365692   6.447805   6.877173   6.043253   3.066704
    30  H    7.831922   7.215402   7.670618   5.509327   2.481440
    31  H    8.099963   7.149062   7.917243   6.501292   2.473430
                   26         27         28         29         30
    26  H    0.000000
    27  H    1.770840   0.000000
    28  H    1.764529   1.764657   0.000000
    29  H    2.634475   3.830115   3.127867   0.000000
    30  H    3.813171   4.354023   3.720044   1.770977   0.000000
    31  H    3.079008   3.735311   2.473885   1.766269   1.772198
                   31
    31  H    0.000000
 Stoichiometry    C10H20O
 Framework group  C1[X(C10H20O)]
 Deg. of freedom    87
 Full point group                 C1      NOp   1
 Largest Abelian subgroup         C1      NOp   1
 Largest concise Abelian subgroup C1      NOp   1
                         Standard orientation:                         
 ---------------------------------------------------------------------
 Center     Atomic      Atomic             Coordinates (Angstroms)
 Number     Number       Type             X           Y           Z
 ---------------------------------------------------------------------
      1          6           0       -2.000944   -0.290654    0.210648
      2          6           0       -0.161065    1.305124   -0.577793
      3          6           0        0.238113   -0.204882    1.438224
      4          6           0        0.905300    0.624875    0.311955
      5          6           0       -0.942134   -1.086188    0.991735
      6          6           0       -1.333765    0.401384   -0.988811
      7          6           0       -3.175341   -1.172801   -0.225592
      8          8           0       -0.642119    2.417007    0.196419
      9          6           0        2.046635   -0.080065   -0.481994
     10          6           0        1.719021   -1.443926   -1.112897
     11          6           0        3.309420   -0.209272    0.388786
     12          1           0       -2.385094    0.498430    0.872755
     13          1           0        0.332200    1.686799   -1.487820
     14          1           0       -0.135000    0.500770    2.190697
     15          1           0        0.989952   -0.821439    1.946687
     16          1           0        1.400795    1.473293    0.802358
     17          1           0       -1.402574   -1.544272    1.877904
     18          1           0       -0.592333   -1.917312    0.364831
     19          1           0       -2.072138    1.007753   -1.537467
     20          1           0       -0.983329   -0.356252   -1.702455
     21          1           0       -3.935462   -0.591926   -0.762700
     22          1           0       -2.838890   -1.976648   -0.893622
     23          1           0       -3.661721   -1.641751    0.638338
     24          1           0       -1.371837    2.823259   -0.297662
     25          1           0        2.302191    0.603003   -1.307078
     26          1           0        1.510224   -2.202133   -0.349364
     27          1           0        0.859758   -1.402363   -1.789203
     28          1           0        2.576445   -1.800416   -1.696717
     29          1           0        3.147093   -0.883434    1.238765
     30          1           0        3.620750    0.762683    0.788978
     31          1           0        4.144487   -0.615673   -0.194140
 ---------------------------------------------------------------------
 Rotational constants (GHZ):      1.5458068      0.7716792      0.6600751
 Standard basis: 6-31+G(d,p) (6D, 7F)
 There are   309 symmetry adapted basis functions of A   symmetry.
 Integral buffers will be    131072 words long.
 Raffenetti 2 integral format.
 Two-electron integral symmetry is turned on.
   309 basis functions,   492 primitive gaussians,   309 cartesian basis functions
    44 alpha electrons       44 beta electrons
       nuclear repulsion energy       696.3603259163 Hartrees.
 NAtoms=   31 NActive=   31 NUniq=   31 SFac= 1.00D+00 NAtFMM=   60 NAOKFM=F Big=F
 ------------------------------------------------------------------------------
 Polarizable Continuum Model (PCM)
 =================================
 Model                : PCM.
 Atomic radii         : UFF (Universal Force Field).
 Polarization charges : Total charges.
 Charge compensation  : None.
 Solution method      : Matrix inversion.
 Cavity type          : Scaled VdW (van der Waals Surface) (Alpha=1.100).
 Cavity algorithm     : GePol (No added spheres)
                        Default sphere list used, NSphG=   31.
                        Lebedev-Laikov grids with approx.  5.0 points / Ang**2.
                        Smoothing algorithm: Karplus/York (Gamma=1.0000).
                        Polarization charges: spherical gaussians, with
                                              point-specific exponents (IZeta= 3).
                        Self-potential: point-specific (ISelfS= 7).
                        Self-field    : sphere-specific E.n sum rule (ISelfD= 2).
 Solvent              : Benzene, Eps=   2.270600 Eps(inf)=   2.253301
 ------------------------------------------------------------------------------
 One-electron integrals computed using PRISM.
 NBasis=   309 RedAO= T  NBF=   309
 NBsUse=   309 1.00D-06 NBFU=   309
 Harris functional with IExCor=  908 diagonalized for initial guess.
 ExpMin= 4.38D-02 ExpMax= 5.48D+03 ExpMxC= 8.25D+02 IAcc=2 IRadAn=         4 AccDes= 0.00D+00
 HarFok:  IExCor=  908 AccDes= 0.00D+00 IRadAn=         4 IDoV= 1
 ScaDFX=  1.000000  1.000000  1.000000  1.000000
 FoFCou: FMM=F IPFlag=           0 FMFlag=      100000 FMFlg1=           0
         NFxFlg=           0 DoJE=T BraDBF=F KetDBF=T FulRan=T
         Omega=  0.000000  0.000000  1.000000  0.000000  0.000000 ICntrl=     500 IOpCl=  0
         NMat0=    1 NMatS0=    1 NMatT0=    0 NMatD0=    1 NMtDS0=    0 NMtDT0=    0
         I1Cent=           4 NGrid=           0.
 Petite list used in FoFCou.
 Initial guess orbital symmetries:
       Occupied  (A) (A) (A) (A) (A) (A) (A) (A) (A) (A) (A) (A)
                 (A) (A) (A) (A) (A) (A) (A) (A) (A) (A) (A) (A)
                 (A) (A) (A) (A) (A) (A) (A) (A) (A) (A) (A) (A)
                 (A) (A) (A) (A) (A) (A) (A) (A)
       Virtual   (A) (A) (A) (A) (A) (A) (A) (A) (A) (A) (A) (A)
                 (A) (A) (A) (A) (A) (A) (A) (A) (A) (A) (A) (A)
                 (A) (A) (A) (A) (A) (A) (A) (A) (A) (A) (A) (A)
                 (A) (A) (A) (A) (A) (A) (A) (A) (A) (A) (A) (A)
                 (A) (A) (A) (A) (A) (A) (A) (A) (A) (A) (A) (A)
                 (A) (A) (A) (A) (A) (A) (A) (A) (A) (A) (A) (A)
                 (A) (A) (A) (A) (A) (A) (A) (A) (A) (A) (A) (A)
                 (A) (A) (A) (A) (A) (A) (A) (A) (A) (A) (A) (A)
                 (A) (A) (A) (A) (A) (A) (A) (A) (A) (A) (A) (A)
                 (A) (A) (A) (A) (A) (A) (A) (A) (A) (A) (A) (A)
                 (A) (A) (A) (A) (A) (A) (A) (A) (A) (A) (A) (A)
                 (A) (A) (A) (A) (A) (A) (A) (A) (A) (A) (A) (A)
                 (A) (A) (A) (A) (A) (A) (A) (A) (A) (A) (A) (A)
                 (A) (A) (A) (A) (A) (A) (A) (A) (A) (A) (A) (A)
                 (A) (A) (A) (A) (A) (A) (A) (A) (A) (A) (A) (A)
                 (A) (A) (A) (A) (A) (A) (A) (A) (A) (A) (A) (A)
                 (A) (A) (A) (A) (A) (A) (A) (A) (A) (A) (A) (A)
                 (A) (A) (A) (A) (A) (A) (A) (A) (A) (A) (A) (A)
                 (A) (A) (A) (A) (A) (A) (A) (A) (A) (A) (A) (A)
                 (A) (A) (A) (A) (A) (A) (A) (A) (A) (A) (A) (A)
                 (A) (A) (A) (A) (A) (A) (A) (A) (A) (A) (A) (A)
                 (A) (A) (A) (A) (A) (A) (A) (A) (A) (A) (A) (A)
                 (A)
 The electronic state of the initial guess is 1-A.
 Requested convergence on RMS density matrix=1.00D-08 within 128 cycles.
 Requested convergence on MAX density matrix=1.00D-06.
 Requested convergence on             energy=1.00D-06.
 No special actions if energy rises.
 Error on total polarization charges =  0.00929
 SCF Done:  E(RmPW1PW91) =  -468.277463864     A.U. after   12 cycles
             Convg  =    0.9753D-08             -V/T =  2.0099
 Range of M.O.s used for correlation:     1   309
 NBasis=   309 NAE=    44 NBE=    44 NFC=     0 NFV=     0
 NROrb=    309 NOA=    44 NOB=    44 NVA=   265 NVB=   265

 **** Warning!!: The largest alpha MO coefficient is  0.72929370D+02

 NEqPCM:  Using equilibrium solvation (IEInf=0, Eps=   2.2706, EpsInf=   2.2533)
          Differentiating once with respect to magnetic field using GIAOs.
          Electric field/nuclear overlap derivatives assumed to be zero.
 FoFCou: FMM=F IPFlag=           0 FMFlag=    10101102 FMFlg1=           0
         NFxFlg=    40000000 DoJE=F BraDBF=F KetDBF=T FulRan=T
         Omega=  0.000000  0.000000  1.000000  0.000000  0.000000 ICntrl=    6100 IOpCl=  0
         NMat0=    1 NMatS0=    1 NMatT0=    0 NMatD0=    1 NMtDS0=    0 NMtDT0=    0
         I1Cent=           7 NGrid=        1932.
 Symmetry not used in FoFCou.
          There are     3 degrees of freedom in the 1st order CPHF.  IDoFFX=0.
      3 vectors produced by pass  0 Test12= 3.89D-13 3.33D-08 XBig12= 3.49D+01 1.23D+00.
 AX will form     3 AO Fock derivatives at one time.
      3 vectors produced by pass  1 Test12= 3.89D-13 3.33D-08 XBig12= 7.36D-02 6.02D-02.
      3 vectors produced by pass  2 Test12= 3.89D-13 3.33D-08 XBig12= 2.81D-04 3.69D-03.
      3 vectors produced by pass  3 Test12= 3.89D-13 3.33D-08 XBig12= 1.14D-06 1.82D-04.
      3 vectors produced by pass  4 Test12= 3.89D-13 3.33D-08 XBig12= 2.40D-09 8.44D-06.
      3 vectors produced by pass  5 Test12= 3.89D-13 3.33D-08 XBig12= 5.55D-12 4.07D-07.
 Inverted reduced A of dimension    18 with in-core refinement.
 Calculating GIAO nuclear magnetic shielding tensors.
 SCF GIAO Magnetic shielding tensor (ppm):
      1  C    Isotropic =   167.6781   Anisotropy =    13.7979
   XX=   168.8787   YX=    -1.4903   ZX=     5.1656
   XY=     0.2861   YY=   166.7652   ZY=     0.0119
   XZ=    12.1640   YZ=     3.2899   ZZ=   167.3904
   Eigenvalues:   159.0932   167.0645   176.8767
      2  C    Isotropic =   119.5619   Anisotropy =    42.7013
   XX=   117.8854   YX=   -19.1304   ZX=   -10.4552
   XY=   -17.1080   YY=   126.3321   ZY=    14.5729
   XZ=    -8.9901   YZ=    10.0032   ZZ=   114.4682
   Eigenvalues:   103.5037   107.1525   148.0294
      3  C    Isotropic =   173.8296   Anisotropy =    19.7232
   XX=   178.2779   YX=     9.2741   ZX=     4.2300
   XY=    11.7151   YY=   173.8636   ZY=     0.4522
   XZ=    -1.2978   YZ=     1.6432   ZZ=   169.3474
   Eigenvalues:   165.3434   169.1670   186.9784
      4  C    Isotropic =   151.6122   Anisotropy =    26.9754
   XX=   156.6573   YX=   -14.9963   ZX=     1.8390
   XY=   -12.6314   YY=   151.9612   ZY=    12.1018
   XZ=     3.1766   YZ=     9.5096   ZZ=   146.2180
   Eigenvalues:   132.6879   152.5528   169.5958
      5  C    Isotropic =   161.7955   Anisotropy =    18.3139
   XX=   169.6730   YX=     0.2315   ZX=     7.3443
   XY=    -6.6468   YY=   157.5539   ZY=    -0.5731
   XZ=     7.3002   YZ=    -2.5557   ZZ=   158.1595
   Eigenvalues:   154.6020   156.7797   174.0047
      6  C    Isotropic =   152.8405   Anisotropy =    22.4455
   XX=   156.5149   YX=    13.7397   ZX=    -0.7335
   XY=     5.3821   YY=   158.9984   ZY=     1.9249
   XZ=    -8.7065   YZ=    -1.9733   ZZ=   143.0082
   Eigenvalues:   140.9085   149.8088   167.8042
      7  C    Isotropic =   172.9242   Anisotropy =    38.1744
   XX=   185.6393   YX=    14.0810   ZX=     6.8533
   XY=    19.1741   YY=   170.7090   ZY=     1.6201
   XZ=    10.8067   YZ=     1.9735   ZZ=   162.4243
   Eigenvalues:   156.9859   163.4129   198.3738
      8  O    Isotropic =   267.9367   Anisotropy =   109.9362
   XX=   291.4868   YX=   -48.1659   ZX=    46.8522
   XY=   -39.0284   YY=   282.0191   ZY=    17.2291
   XZ=    54.0249   YZ=     0.3342   ZZ=   230.3042
   Eigenvalues:   191.5700   271.0126   341.2275
      9  C    Isotropic =   159.8715   Anisotropy =    19.6795
   XX=   166.4733   YX=    -2.9313   ZX=    -8.6251
   XY=    -7.6860   YY=   153.9423   ZY=     0.9932
   XZ=    -7.9807   YZ=    -0.7561   ZZ=   159.1988
   Eigenvalues:   150.5485   156.0748   172.9912
     10  C    Isotropic =   174.8162   Anisotropy =    20.9907
   XX=   174.4027   YX=     1.8427   ZX=     1.1646
   XY=     8.0995   YY=   180.4854   ZY=    12.0280
   XZ=     3.2714   YZ=     8.7994   ZZ=   169.5605
   Eigenvalues:   163.2178   172.4207   188.8100
     11  C    Isotropic =   171.3836   Anisotropy =    39.3927
   XX=   185.9523   YX=     0.6595   ZX=    17.5843
   XY=    -5.4810   YY=   162.8617   ZY=    10.2067
   XZ=    20.4228   YZ=    11.6037   ZZ=   165.3367
   Eigenvalues:   146.8804   169.6249   197.6453
     12  H    Isotropic =    29.5981   Anisotropy =     6.3362
   XX=    30.5748   YX=    -0.8603   ZX=    -2.6149
   XY=    -0.5972   YY=    30.4608   ZY=     2.9907
   XZ=    -2.6012   YZ=     2.9641   ZZ=    27.7587
   Eigenvalues:    25.1718    29.8003    33.8222
     13  H    Isotropic =    27.6764   Anisotropy =     4.9966
   XX=    26.7615   YX=     0.4298   ZX=    -2.7276
   XY=    -1.0658   YY=    27.8671   ZY=    -0.9887
   XZ=    -3.1590   YZ=    -2.1097   ZZ=    28.4007
   Eigenvalues:    24.1291    27.8927    31.0075
     14  H    Isotropic =    29.7025   Anisotropy =     9.0340
   XX=    26.6616   YX=     1.1505   ZX=    -0.9372
   XY=     0.2970   YY=    28.4565   ZY=     3.2277
   XZ=    -1.9561   YZ=     3.5916   ZZ=    33.9895
   Eigenvalues:    25.4159    27.9665    35.7252
     15  H    Isotropic =    29.9433   Anisotropy =     8.2460
   XX=    32.6986   YX=    -1.4365   ZX=     2.3935
   XY=    -1.2595   YY=    26.5305   ZY=    -3.1270
   XZ=     2.5354   YZ=    -3.7555   ZZ=    30.6009
   Eigenvalues:    24.5673    29.8220    35.4407
     16  H    Isotropic =    29.9231   Anisotropy =     6.0454
   XX=    31.2523   YX=     0.8775   ZX=     0.3287
   XY=     1.2538   YY=    32.4584   ZY=     2.2059
   XZ=     0.9751   YZ=     3.0467   ZZ=    26.0587
   Eigenvalues:    25.1080    30.7080    33.9534
     17  H    Isotropic =    30.1977   Anisotropy =     9.1057
   XX=    29.9170   YX=     2.6254   ZX=    -1.4280
   XY=     3.0679   YY=    28.4505   ZY=    -4.4462
   XZ=    -1.0368   YZ=    -4.4253   ZZ=    32.2254
   Eigenvalues:    24.8642    29.4607    36.2681
     18  H    Isotropic =    30.4739   Anisotropy =     5.0319
   XX=    31.9948   YX=    -0.4123   ZX=    -0.8201
   XY=    -1.1070   YY=    32.9078   ZY=     1.9389
   XZ=    -1.0249   YZ=     1.3703   ZZ=    26.5190
   Eigenvalues:    26.0281    31.5650    33.8285
     19  H    Isotropic =    30.1915   Anisotropy =     7.7420
   XX=    30.3250   YX=    -1.1538   ZX=     3.0930
   XY=    -0.4301   YY=    29.8442   ZY=    -3.6802
   XZ=     3.3928   YZ=    -3.1406   ZZ=    30.4054
   Eigenvalues:    25.9118    29.3100    35.3529
     20  H    Isotropic =    30.0784   Anisotropy =     4.7957
   XX=    30.4232   YX=    -0.3138   ZX=    -0.0911
   XY=    -0.5831   YY=    28.2020   ZY=     2.8745
   XZ=    -0.4832   YZ=     2.7581   ZZ=    31.6100
   Eigenvalues:    26.5978    30.3618    33.2755
     21  H    Isotropic =    30.6895   Anisotropy =    10.7728
   XX=    35.9553   YX=    -1.5584   ZX=     4.1451
   XY=    -0.4425   YY=    28.0357   ZY=    -0.7524
   XZ=     3.9664   YZ=    -1.7231   ZZ=    28.0775
   Eigenvalues:    26.0523    28.1449    37.8714
     22  H    Isotropic =    31.0063   Anisotropy =     8.0810
   XX=    29.9763   YX=     1.8937   ZX=     0.9517
   XY=     1.2312   YY=    33.0271   ZY=     4.2259
   XZ=     0.4667   YZ=     4.1032   ZZ=    30.0155
   Eigenvalues:    27.0542    29.5710    36.3936
     23  H    Isotropic =    30.5599   Anisotropy =    10.6818
   XX=    33.0189   YX=     4.3100   ZX=    -3.5243
   XY=     4.1993   YY=    28.8255   ZY=    -3.1642
   XZ=    -2.5809   YZ=    -2.0492   ZZ=    29.8354
   Eigenvalues:    26.0140    27.9847    37.6811
     24  H    Isotropic =    31.3027   Anisotropy =    17.7752
   XX=    33.2088   YX=    -7.9344   ZX=     6.3229
   XY=    -8.3173   YY=    33.4758   ZY=    -2.1252
   XZ=     4.8071   YZ=    -1.2565   ZZ=    27.2233
   Eigenvalues:    22.7249    28.0303    43.1528
     25  H    Isotropic =    29.7822   Anisotropy =     7.2382
   XX=    29.5409   YX=     1.2786   ZX=    -2.3602
   XY=     0.7395   YY=    29.4027   ZY=    -3.4113
   XZ=    -2.1266   YZ=    -3.7125   ZZ=    30.4030
   Eigenvalues:    26.1172    28.6218    34.6076
     26  H    Isotropic =    30.7456   Anisotropy =     5.9013
   XX=    29.4452   YX=     0.4926   ZX=    -1.9437
   XY=     0.3735   YY=    34.2551   ZY=    -1.8362
   XZ=    -1.8081   YZ=    -0.7709   ZZ=    28.5367
   Eigenvalues:    26.9783    30.5787    34.6799
     27  H    Isotropic =    30.4066   Anisotropy =     7.4522
   XX=    32.6025   YX=    -1.2879   ZX=     2.9267
   XY=     0.1791   YY=    27.9094   ZY=     4.0110
   XZ=     3.2708   YZ=     3.1775   ZZ=    30.7079
   Eigenvalues:    24.7775    31.0675    35.3747
     28  H    Isotropic =    30.7382   Anisotropy =    10.6882
   XX=    31.7197   YX=    -2.3210   ZX=    -3.5751
   XY=    -3.0362   YY=    29.7311   ZY=     4.2953
   XZ=    -3.7314   YZ=     4.2358   ZZ=    30.7640
   Eigenvalues:    25.9003    28.4507    37.8637
     29  H    Isotropic =    30.4313   Anisotropy =     6.7137
   XX=    31.2097   YX=    -1.5776   ZX=     2.1119
   XY=    -0.7128   YY=    28.2550   ZY=    -3.1128
   XZ=     1.3415   YZ=    -3.3819   ZZ=    31.8293
   Eigenvalues:    26.3328    30.0540    34.9071
     30  H    Isotropic =    30.7081   Anisotropy =    10.3105
   XX=    32.4954   YX=     4.1510   ZX=     3.1975
   XY=     3.0602   YY=    31.6976   ZY=     2.3203
   XZ=     2.6911   YZ=     3.7907   ZZ=    27.9313
   Eigenvalues:    26.0417    28.5008    37.5818
     31  H    Isotropic =    30.6436   Anisotropy =    10.5241
   XX=    36.7310   YX=    -2.2868   ZX=    -2.1146
   XY=    -2.3257   YY=    27.3856   ZY=     1.9740
   XZ=    -1.1866   YZ=     1.0389   ZZ=    27.8142
   Eigenvalues:    26.0254    28.2457    37.6597
 End of Minotr Frequency-dependent properties file   721 does not exist.
 End of Minotr Frequency-dependent properties file   722 does not exist.

 **********************************************************************

            Population analysis using the SCF density.

 **********************************************************************

 Orbital symmetries:
       Occupied  (A) (A) (A) (A) (A) (A) (A) (A) (A) (A) (A) (A)
                 (A) (A) (A) (A) (A) (A) (A) (A) (A) (A) (A) (A)
                 (A) (A) (A) (A) (A) (A) (A) (A) (A) (A) (A) (A)
                 (A) (A) (A) (A) (A) (A) (A) (A)
       Virtual   (A) (A) (A) (A) (A) (A) (A) (A) (A) (A) (A) (A)
                 (A) (A) (A) (A) (A) (A) (A) (A) (A) (A) (A) (A)
                 (A) (A) (A) (A) (A) (A) (A) (A) (A) (A) (A) (A)
                 (A) (A) (A) (A) (A) (A) (A) (A) (A) (A) (A) (A)
                 (A) (A) (A) (A) (A) (A) (A) (A) (A) (A) (A) (A)
                 (A) (A) (A) (A) (A) (A) (A) (A) (A) (A) (A) (A)
                 (A) (A) (A) (A) (A) (A) (A) (A) (A) (A) (A) (A)
                 (A) (A) (A) (A) (A) (A) (A) (A) (A) (A) (A) (A)
                 (A) (A) (A) (A) (A) (A) (A) (A) (A) (A) (A) (A)
                 (A) (A) (A) (A) (A) (A) (A) (A) (A) (A) (A) (A)
                 (A) (A) (A) (A) (A) (A) (A) (A) (A) (A) (A) (A)
                 (A) (A) (A) (A) (A) (A) (A) (A) (A) (A) (A) (A)
                 (A) (A) (A) (A) (A) (A) (A) (A) (A) (A) (A) (A)
                 (A) (A) (A) (A) (A) (A) (A) (A) (A) (A) (A) (A)
                 (A) (A) (A) (A) (A) (A) (A) (A) (A) (A) (A) (A)
                 (A) (A) (A) (A) (A) (A) (A) (A) (A) (A) (A) (A)
                 (A) (A) (A) (A) (A) (A) (A) (A) (A) (A) (A) (A)
                 (A) (A) (A) (A) (A) (A) (A) (A) (A) (A) (A) (A)
                 (A) (A) (A) (A) (A) (A) (A) (A) (A) (A) (A) (A)
                 (A) (A) (A) (A) (A) (A) (A) (A) (A) (A) (A) (A)
                 (A) (A) (A) (A) (A) (A) (A) (A) (A) (A) (A) (A)
                 (A) (A) (A) (A) (A) (A) (A) (A) (A) (A) (A) (A)
                 (A)
 The electronic state is 1-A.
 Alpha  occ. eigenvalues --  -19.24392 -10.29526 -10.25277 -10.24657 -10.24522
 Alpha  occ. eigenvalues --  -10.24236 -10.23615 -10.23567 -10.23316 -10.23309
 Alpha  occ. eigenvalues --  -10.23194  -1.04882  -0.85634  -0.82049  -0.76490
 Alpha  occ. eigenvalues --   -0.75405  -0.70523  -0.69539  -0.63307  -0.61774
 Alpha  occ. eigenvalues --   -0.58744  -0.54167  -0.50759  -0.49034  -0.47986
 Alpha  occ. eigenvalues --   -0.46491  -0.44455  -0.43523  -0.43344  -0.41475
 Alpha  occ. eigenvalues --   -0.40464  -0.39675  -0.39087  -0.38087  -0.37169
 Alpha  occ. eigenvalues --   -0.36562  -0.35665  -0.34363  -0.33644  -0.32775
 Alpha  occ. eigenvalues --   -0.31270  -0.31062  -0.29917  -0.28023
 Alpha virt. eigenvalues --    0.00505   0.01990   0.02068   0.02339   0.03647
 Alpha virt. eigenvalues --    0.04283   0.04528   0.05050   0.05510   0.06711
 Alpha virt. eigenvalues --    0.07207   0.07688   0.08105   0.08625   0.08995
 Alpha virt. eigenvalues --    0.09567   0.10027   0.10771   0.11412   0.11536
 Alpha virt. eigenvalues --    0.12301   0.12780   0.13516   0.14389   0.14838
 Alpha virt. eigenvalues --    0.15085   0.15997   0.16282   0.16545   0.17230
 Alpha virt. eigenvalues --    0.17593   0.18704   0.18934   0.19294   0.19721
 Alpha virt. eigenvalues --    0.19962   0.20937   0.21438   0.21633   0.22279
 Alpha virt. eigenvalues --    0.23118   0.23373   0.23669   0.24148   0.24634
 Alpha virt. eigenvalues --    0.25184   0.25587   0.25958   0.26646   0.27762
 Alpha virt. eigenvalues --    0.27856   0.28565   0.28839   0.29656   0.30500
 Alpha virt. eigenvalues --    0.30784   0.31572   0.31783   0.32295   0.33622
 Alpha virt. eigenvalues --    0.34369   0.34921   0.35945   0.37369   0.38689
 Alpha virt. eigenvalues --    0.39145   0.39435   0.40067   0.40920   0.41863
 Alpha virt. eigenvalues --    0.43291   0.44861   0.45983   0.49432   0.51557
 Alpha virt. eigenvalues --    0.63564   0.64628   0.66150   0.66459   0.66812
 Alpha virt. eigenvalues --    0.68721   0.69235   0.69791   0.71719   0.72647
 Alpha virt. eigenvalues --    0.73649   0.74717   0.75406   0.76281   0.78027
 Alpha virt. eigenvalues --    0.78595   0.78987   0.80479   0.83312   0.84418
 Alpha virt. eigenvalues --    0.85478   0.87511   0.88543   0.90164   0.92766
 Alpha virt. eigenvalues --    0.93675   0.96801   0.97169   0.99658   1.00511
 Alpha virt. eigenvalues --    1.00709   1.02371   1.03107   1.03665   1.04907
 Alpha virt. eigenvalues --    1.05818   1.06908   1.09340   1.10355   1.11055
 Alpha virt. eigenvalues --    1.13648   1.13929   1.14903   1.15551   1.16094
 Alpha virt. eigenvalues --    1.18282   1.18955   1.19705   1.20713   1.23031
 Alpha virt. eigenvalues --    1.23862   1.24939   1.29270   1.29806   1.33154
 Alpha virt. eigenvalues --    1.35298   1.39090   1.42393   1.44050   1.46535
 Alpha virt. eigenvalues --    1.47540   1.51582   1.52287   1.53306   1.56773
 Alpha virt. eigenvalues --    1.59040   1.59903   1.62876   1.65145   1.68047
 Alpha virt. eigenvalues --    1.70207   1.73090   1.74216   1.78030   1.81138
 Alpha virt. eigenvalues --    1.81529   1.84024   1.85556   1.86034   1.88905
 Alpha virt. eigenvalues --    1.90236   1.90885   1.92376   1.94402   1.95462
 Alpha virt. eigenvalues --    1.95799   1.97203   2.01309   2.03373   2.04155
 Alpha virt. eigenvalues --    2.05079   2.06110   2.06835   2.07371   2.08427
 Alpha virt. eigenvalues --    2.09145   2.12493   2.13007   2.13561   2.15223
 Alpha virt. eigenvalues --    2.16305   2.16680   2.17862   2.18591   2.20220
 Alpha virt. eigenvalues --    2.21716   2.22517   2.24841   2.26095   2.28567
 Alpha virt. eigenvalues --    2.32806   2.34631   2.34981   2.36298   2.38130
 Alpha virt. eigenvalues --    2.39460   2.40283   2.40845   2.42645   2.46128
 Alpha virt. eigenvalues --    2.47234   2.51262   2.53749   2.55300   2.57574
 Alpha virt. eigenvalues --    2.59544   2.61055   2.61806   2.63498   2.65110
 Alpha virt. eigenvalues --    2.67717   2.68481   2.69833   2.70178   2.72452
 Alpha virt. eigenvalues --    2.73600   2.75857   2.76664   2.77575   2.78410
 Alpha virt. eigenvalues --    2.79713   2.80881   2.83603   2.84306   2.84973
 Alpha virt. eigenvalues --    2.86577   2.89307   2.89410   2.91364   2.91901
 Alpha virt. eigenvalues --    2.93615   2.94002   2.96504   2.97718   2.98769
 Alpha virt. eigenvalues --    2.99477   3.02920   3.04703   3.16649   3.29128
 Alpha virt. eigenvalues --    3.29386   3.31047   3.36138   3.38446   3.39359
 Alpha virt. eigenvalues --    3.41233   3.42771   3.48377   3.48716   3.50272
 Alpha virt. eigenvalues --    3.52410   3.53506   3.53747   3.54580   3.56236
 Alpha virt. eigenvalues --    3.58216   3.59681   3.60611   3.64574   4.37091
 Alpha virt. eigenvalues --    4.41198   4.42998   4.56376   4.58673   4.62258
 Alpha virt. eigenvalues --    4.63612   4.75630   4.84290   4.90255   4.96168
          Condensed to atoms (all electrons):
              1          2          3          4          5          6
     1  C    7.170029   0.495594   0.173542  -0.067723  -0.242592  -0.614530
     2  C    0.495594   8.593752   0.484121  -1.037185  -0.078288  -1.597243
     3  C    0.173542   0.484121   6.082194  -0.045588   0.146130  -0.443323
     4  C   -0.067723  -1.037185  -0.045588   7.017892  -0.342364   0.130517
     5  C   -0.242592  -0.078288   0.146130  -0.342364   6.129638  -0.184935
     6  C   -0.614530  -1.597243  -0.443323   0.130517  -0.184935   7.308219
     7  C   -0.823629  -0.555734  -0.221686   0.071653   0.113843   0.560211
     8  O   -0.003109  -0.112577  -0.100370   0.090392  -0.037408   0.119199
     9  C   -0.108293  -0.346533  -0.358687  -0.183078   0.126990   0.378884
    10  C    0.079651   0.269540   0.024547  -0.153364  -0.115152  -0.113406
    11  C   -0.007714  -0.116803   0.077865   0.201948   0.015248  -0.040609
    12  H    0.282458  -0.086155  -0.034127   0.033870   0.024094   0.031247
    13  H    0.014963   0.063023  -0.012645   0.043384  -0.015438   0.146948
    14  H   -0.010854  -0.051298   0.401296  -0.007020  -0.021036   0.003037
    15  H    0.031151   0.026253   0.412441  -0.078443  -0.055853  -0.009534
    16  H   -0.008560   0.019092  -0.030701   0.262183   0.044482   0.023502
    17  H   -0.018171  -0.003025  -0.010223   0.045457   0.294690   0.040272
    18  H   -0.115507  -0.062039  -0.088739   0.060293   0.479485   0.031026
    19  H   -0.012763   0.061996   0.001182   0.014382   0.037827   0.253629
    20  H   -0.097487  -0.119380  -0.011619   0.059227   0.013620   0.447684
    21  H   -0.116280   0.001668  -0.006323   0.002518   0.025313  -0.001040
    22  H   -0.107758  -0.011273  -0.003530   0.004908   0.008563   0.010650
    23  H   -0.134556  -0.014012  -0.001106   0.004223   0.003383   0.037800
    24  H   -0.009216   0.146338   0.018107  -0.030672   0.011483  -0.100724
    25  H    0.004205  -0.022029   0.015503  -0.031089  -0.020885   0.013365
    26  H    0.004725  -0.009490   0.022242  -0.006501  -0.027606   0.005790
    27  H    0.001786   0.048241  -0.029733  -0.014953   0.014236  -0.034654
    28  H   -0.000215   0.005890   0.001583   0.028425  -0.000455  -0.002278
    29  H    0.001361   0.002858  -0.002166   0.004324  -0.009624   0.000917
    30  H    0.000189  -0.009877   0.020007  -0.006217   0.002199   0.001233
    31  H   -0.000362  -0.004773   0.000541   0.033008  -0.000193   0.000112
              7          8          9         10         11         12
     1  C   -0.823629  -0.003109  -0.108293   0.079651  -0.007714   0.282458
     2  C   -0.555734  -0.112577  -0.346533   0.269540  -0.116803  -0.086155
     3  C   -0.221686  -0.100370  -0.358687   0.024547   0.077865  -0.034127
     4  C    0.071653   0.090392  -0.183078  -0.153364   0.201948   0.033870
     5  C    0.113843  -0.037408   0.126990  -0.115152   0.015248   0.024094
     6  C    0.560211   0.119199   0.378884  -0.113406  -0.040609   0.031247
     7  C    6.103283   0.054295   0.077030  -0.023408  -0.005104   0.008850
     8  O    0.054295   8.317303   0.033399  -0.000820  -0.008745   0.010963
     9  C    0.077030   0.033399   6.690734  -0.060990  -0.240226   0.004212
    10  C   -0.023408  -0.000820  -0.060990   5.520944  -0.109297  -0.003413
    11  C   -0.005104  -0.008745  -0.240226  -0.109297   5.567135   0.000653
    12  H    0.008850   0.010963   0.004212  -0.003413   0.000653   0.557628
    13  H    0.013254  -0.034992   0.030442  -0.009259   0.003947  -0.000044
    14  H    0.004653   0.004268   0.007508  -0.006325   0.005038   0.003200
    15  H   -0.001663  -0.000449   0.005544  -0.005220  -0.005532  -0.000011
    16  H    0.002154  -0.012120   0.008800   0.003782  -0.025684  -0.000078
    17  H   -0.023329   0.000426  -0.001628   0.004603  -0.001105  -0.004716
    18  H    0.003376   0.000672   0.012346  -0.018201   0.004835   0.005302
    19  H   -0.020463  -0.018752  -0.004883   0.000746   0.000698  -0.003678
    20  H    0.006455   0.010750   0.017534  -0.024634   0.002976   0.005121
    21  H    0.452897  -0.000216   0.000101  -0.000032   0.000021  -0.003627
    22  H    0.446491   0.000124   0.001211  -0.000872   0.000139   0.004730
    23  H    0.462673   0.000195   0.000374  -0.000159  -0.000018  -0.003620
    24  H   -0.013708   0.211697  -0.002808  -0.001618   0.001705   0.000153
    25  H   -0.000483   0.000740   0.290468   0.011348   0.004388  -0.000002
    26  H    0.000371   0.000025  -0.085303   0.449318  -0.004687  -0.000003
    27  H   -0.000758  -0.000257  -0.051268   0.423438   0.000266  -0.000007
    28  H   -0.000532   0.000015  -0.117638   0.440991   0.002696   0.000000
    29  H   -0.000010   0.000004  -0.099783   0.002843   0.448207   0.000000
    30  H    0.000086  -0.000202  -0.087506   0.003490   0.435524   0.000000
    31  H   -0.000025   0.000005  -0.111749   0.002223   0.440278   0.000000
             13         14         15         16         17         18
     1  C    0.014963  -0.010854   0.031151  -0.008560  -0.018171  -0.115507
     2  C    0.063023  -0.051298   0.026253   0.019092  -0.003025  -0.062039
     3  C   -0.012645   0.401296   0.412441  -0.030701  -0.010223  -0.088739
     4  C    0.043384  -0.007020  -0.078443   0.262183   0.045457   0.060293
     5  C   -0.015438  -0.021036  -0.055853   0.044482   0.294690   0.479485
     6  C    0.146948   0.003037  -0.009534   0.023502   0.040272   0.031026
     7  C    0.013254   0.004653  -0.001663   0.002154  -0.023329   0.003376
     8  O   -0.034992   0.004268  -0.000449  -0.012120   0.000426   0.000672
     9  C    0.030442   0.007508   0.005544   0.008800  -0.001628   0.012346
    10  C   -0.009259  -0.006325  -0.005220   0.003782   0.004603  -0.018201
    11  C    0.003947   0.005038  -0.005532  -0.025684  -0.001105   0.004835
    12  H   -0.000044   0.003200  -0.000011  -0.000078  -0.004716   0.005302
    13  H    0.639581  -0.000094  -0.000101  -0.003180   0.000013  -0.000043
    14  H   -0.000094   0.529298  -0.028445  -0.007231  -0.005355   0.004639
    15  H   -0.000101  -0.028445   0.563444  -0.000575  -0.002207  -0.004167
    16  H   -0.003180  -0.007231  -0.000575   0.560419  -0.000130  -0.000138
    17  H    0.000013  -0.005355  -0.002207  -0.000130   0.557938  -0.031019
    18  H   -0.000043   0.004639  -0.004167  -0.000138  -0.031019   0.558455
    19  H   -0.005518  -0.000020   0.000010  -0.000164  -0.000140   0.000003
    20  H   -0.001925   0.000069  -0.000019  -0.000091  -0.000034   0.003289
    21  H   -0.000003   0.000001   0.000002   0.000000   0.000020  -0.000006
    22  H   -0.000002   0.000002   0.000000   0.000000  -0.000193   0.003511
    23  H    0.000003  -0.000001  -0.000004   0.000000   0.002853  -0.000217
    24  H   -0.005261  -0.000166   0.000010   0.000299  -0.000007  -0.000001
    25  H    0.006276  -0.000129   0.000103  -0.003483   0.000004  -0.000037
    26  H    0.000030  -0.000025   0.000296  -0.000034   0.000146   0.000264
    27  H   -0.000019  -0.000011   0.000161  -0.000063   0.000019  -0.000718
    28  H   -0.000032   0.000002  -0.000040  -0.000110  -0.000002   0.000182
    29  H    0.000002  -0.000110   0.001865  -0.000380   0.000006  -0.000004
    30  H    0.000015  -0.000027   0.000041   0.003801   0.000000  -0.000002
    31  H   -0.000010   0.000001  -0.000077   0.000191   0.000000  -0.000002
             19         20         21         22         23         24
     1  C   -0.012763  -0.097487  -0.116280  -0.107758  -0.134556  -0.009216
     2  C    0.061996  -0.119380   0.001668  -0.011273  -0.014012   0.146338
     3  C    0.001182  -0.011619  -0.006323  -0.003530  -0.001106   0.018107
     4  C    0.014382   0.059227   0.002518   0.004908   0.004223  -0.030672
     5  C    0.037827   0.013620   0.025313   0.008563   0.003383   0.011483
     6  C    0.253629   0.447684  -0.001040   0.010650   0.037800  -0.100724
     7  C   -0.020463   0.006455   0.452897   0.446491   0.462673  -0.013708
     8  O   -0.018752   0.010750  -0.000216   0.000124   0.000195   0.211697
     9  C   -0.004883   0.017534   0.000101   0.001211   0.000374  -0.002808
    10  C    0.000746  -0.024634  -0.000032  -0.000872  -0.000159  -0.001618
    11  C    0.000698   0.002976   0.000021   0.000139  -0.000018   0.001705
    12  H   -0.003678   0.005121  -0.003627   0.004730  -0.003620   0.000153
    13  H   -0.005518  -0.001925  -0.000003  -0.000002   0.000003  -0.005261
    14  H   -0.000020   0.000069   0.000001   0.000002  -0.000001  -0.000166
    15  H    0.000010  -0.000019   0.000002   0.000000  -0.000004   0.000010
    16  H   -0.000164  -0.000091   0.000000   0.000000   0.000000   0.000299
    17  H   -0.000140  -0.000034   0.000020  -0.000193   0.002853  -0.000007
    18  H    0.000003   0.003289  -0.000006   0.003511  -0.000217  -0.000001
    19  H    0.566192  -0.027926   0.002708  -0.000112  -0.000011   0.006263
    20  H   -0.027926   0.554506  -0.000223   0.003372   0.000000   0.000180
    21  H    0.002708  -0.000223   0.536115  -0.028532  -0.025379   0.000012
    22  H   -0.000112   0.003372  -0.028532   0.536272  -0.027845   0.000000
    23  H   -0.000011   0.000000  -0.025379  -0.027845   0.532041   0.000000
    24  H    0.006263   0.000180   0.000012   0.000000   0.000000   0.414713
    25  H   -0.000012   0.000040   0.000000   0.000000   0.000000  -0.000024
    26  H   -0.000002  -0.000029   0.000000  -0.000007   0.000000   0.000000
    27  H    0.000114   0.002380   0.000001  -0.000008   0.000000   0.000004
    28  H   -0.000001   0.000084   0.000000   0.000000   0.000000   0.000000
    29  H    0.000000   0.000001   0.000000   0.000000   0.000000   0.000000
    30  H    0.000000  -0.000001   0.000000   0.000000   0.000000   0.000000
    31  H    0.000000   0.000000   0.000000   0.000000   0.000000   0.000000
             25         26         27         28         29         30
     1  C    0.004205   0.004725   0.001786  -0.000215   0.001361   0.000189
     2  C   -0.022029  -0.009490   0.048241   0.005890   0.002858  -0.009877
     3  C    0.015503   0.022242  -0.029733   0.001583  -0.002166   0.020007
     4  C   -0.031089  -0.006501  -0.014953   0.028425   0.004324  -0.006217
     5  C   -0.020885  -0.027606   0.014236  -0.000455  -0.009624   0.002199
     6  C    0.013365   0.005790  -0.034654  -0.002278   0.000917   0.001233
     7  C   -0.000483   0.000371  -0.000758  -0.000532  -0.000010   0.000086
     8  O    0.000740   0.000025  -0.000257   0.000015   0.000004  -0.000202
     9  C    0.290468  -0.085303  -0.051268  -0.117638  -0.099783  -0.087506
    10  C    0.011348   0.449318   0.423438   0.440991   0.002843   0.003490
    11  C    0.004388  -0.004687   0.000266   0.002696   0.448207   0.435524
    12  H   -0.000002  -0.000003  -0.000007   0.000000   0.000000   0.000000
    13  H    0.006276   0.000030  -0.000019  -0.000032   0.000002   0.000015
    14  H   -0.000129  -0.000025  -0.000011   0.000002  -0.000110  -0.000027
    15  H    0.000103   0.000296   0.000161  -0.000040   0.001865   0.000041
    16  H   -0.003483  -0.000034  -0.000063  -0.000110  -0.000380   0.003801
    17  H    0.000004   0.000146   0.000019  -0.000002   0.000006   0.000000
    18  H   -0.000037   0.000264  -0.000718   0.000182  -0.000004  -0.000002
    19  H   -0.000012  -0.000002   0.000114  -0.000001   0.000000   0.000000
    20  H    0.000040  -0.000029   0.002380   0.000084   0.000001  -0.000001
    21  H    0.000000   0.000000   0.000001   0.000000   0.000000   0.000000
    22  H    0.000000  -0.000007  -0.000008   0.000000   0.000000   0.000000
    23  H    0.000000   0.000000   0.000000   0.000000   0.000000   0.000000
    24  H   -0.000024   0.000000   0.000004   0.000000   0.000000   0.000000
    25  H    0.590280   0.005103  -0.003517  -0.004037   0.005101  -0.003735
    26  H    0.005103   0.533916  -0.028533  -0.028356   0.003250   0.000016
    27  H   -0.003517  -0.028533   0.548214  -0.026611  -0.000005  -0.000141
    28  H   -0.004037  -0.028356  -0.026611   0.534475  -0.000158   0.000082
    29  H    0.005101   0.003250  -0.000005  -0.000158   0.536812  -0.028040
    30  H   -0.003735   0.000016  -0.000141   0.000082  -0.028040   0.531291
    31  H   -0.003869  -0.000216   0.000047   0.002750  -0.028367  -0.024992
             31
     1  C   -0.000362
     2  C   -0.004773
     3  C    0.000541
     4  C    0.033008
     5  C   -0.000193
     6  C    0.000112
     7  C   -0.000025
     8  O    0.000005
     9  C   -0.111749
    10  C    0.002223
    11  C    0.440278
    12  H    0.000000
    13  H   -0.000010
    14  H    0.000001
    15  H   -0.000077
    16  H    0.000191
    17  H    0.000000
    18  H   -0.000002
    19  H    0.000000
    20  H    0.000000
    21  H    0.000000
    22  H    0.000000
    23  H    0.000000
    24  H    0.000000
    25  H   -0.003869
    26  H   -0.000216
    27  H    0.000047
    28  H    0.002750
    29  H   -0.028367
    30  H   -0.024992
    31  H    0.532839
 Mulliken atomic charges:
              1
     1  C    0.239665
     2  C    0.019348
     3  C   -0.480736
     4  C   -0.104408
     5  C   -0.339397
     6  C   -0.401967
     7  C   -0.691043
     8  O   -0.524455
     9  C    0.174796
    10  C   -0.591294
    11  C   -0.648046
    12  H    0.167001
    13  H    0.126687
    14  H    0.175136
    15  H    0.151018
    16  H    0.164016
    17  H    0.154838
    18  H    0.153161
    19  H    0.148698
    20  H    0.156080
    21  H    0.160284
    22  H    0.160156
    23  H    0.163381
    24  H    0.353242
    25  H    0.146407
    26  H    0.165297
    27  H    0.152349
    28  H    0.163287
    29  H    0.161098
    30  H    0.162764
    31  H    0.162637
 Sum of Mulliken atomic charges =   0.00000
 Mulliken charges with hydrogens summed into heavy atoms:
              1
     1  C    0.406666
     2  C    0.146035
     3  C   -0.154582
     4  C    0.059607
     5  C   -0.031398
     6  C   -0.097189
     7  C   -0.207222
     8  O   -0.171213
     9  C    0.321203
    10  C   -0.110361
    11  C   -0.161547
 Sum of Mulliken charges with hydrogens summed into heavy atoms =   0.00000
 Electronic spatial extent (au):  <R**2>=           2046.7339
 Charge=              0.0000 electrons
 Dipole moment (field-independent basis, Debye):
    X=             -0.5701    Y=             -0.5291    Z=             -1.4046  Tot=              1.6055
 Quadrupole moment (field-independent basis, Debye-Ang):
   XX=            -69.8142   YY=            -74.1083   ZZ=            -71.6381
   XY=             -2.8880   XZ=              0.7571   YZ=             -3.8761
 Traceless Quadrupole moment (field-independent basis, Debye-Ang):
   XX=              2.0393   YY=             -2.2547   ZZ=              0.2154
   XY=             -2.8880   XZ=              0.7571   YZ=             -3.8761
 Octapole moment (field-independent basis, Debye-Ang**2):
  XXX=             -5.8001  YYY=              9.9002  ZZZ=              0.8727  XYY=             -9.3670
  XXY=             12.8794  XXZ=             -2.3867  XZZ=             -1.5408  YZZ=              3.3543
  YYZ=             -8.8472  XYZ=              4.7793
 Hexadecapole moment (field-independent basis, Debye-Ang**3):
 XXXX=          -1730.1831 YYYY=           -686.5567 ZZZZ=           -430.8643 XXXY=            -30.2963
 XXXZ=            -13.6509 YYYX=            -40.3944 YYYZ=            -26.5747 ZZZX=             -5.0410
 ZZZY=             -2.8695 XXYY=           -379.2417 XXZZ=           -354.3159 YYZZ=           -182.1932
 XXYZ=             -5.7993 YYXZ=             10.3743 ZZXY=             -2.7349
 N-N= 6.963603259163D+02 E-N=-2.478133641103D+03  KE= 4.636959293185D+02
 1\1\GINC-COMPUTE-10-6\SP\RmPW1PW91\6-31+G(d,p)\C10H20O1\ASAROTTI.IQUIR
 \19-Sep-2024\0\\# mPW1PW91/6-31+G** nmr scrf=(pcm,solvent=benzene)\\co
 mment\\0,1\C,0,-2.000944,-0.290654,0.210648\C,0,-0.161065,1.305124,-0.
 577793\C,0,0.238113,-0.204882,1.438224\C,0,0.9053,0.624875,0.311955\C,
 0,-0.942134,-1.086188,0.991735\C,0,-1.333765,0.401384,-0.988811\C,0,-3
 .175341,-1.172801,-0.225592\O,0,-0.642119,2.417007,0.196419\C,0,2.0466
 35,-0.080065,-0.481994\C,0,1.719021,-1.443926,-1.112897\C,0,3.30942,-0
 .209272,0.388786\H,0,-2.385094,0.49843,0.872755\H,0,0.3322,1.686799,-1
 .48782\H,0,-0.135,0.50077,2.190697\H,0,0.989952,-0.821439,1.946687\H,0
 ,1.400795,1.473293,0.802358\H,0,-1.402574,-1.544272,1.877904\H,0,-0.59
 2333,-1.917312,0.364831\H,0,-2.072138,1.007753,-1.537467\H,0,-0.983329
 ,-0.356252,-1.702455\H,0,-3.935462,-0.591926,-0.7627\H,0,-2.83889,-1.9
 76648,-0.893622\H,0,-3.661721,-1.641751,0.638338\H,0,-1.371837,2.82325
 9,-0.297662\H,0,2.302191,0.603003,-1.307078\H,0,1.510224,-2.202133,-0.
 349364\H,0,0.859758,-1.402363,-1.789203\H,0,2.576445,-1.800416,-1.6967
 17\H,0,3.147093,-0.883434,1.238765\H,0,3.62075,0.762683,0.788978\H,0,4
 .144487,-0.615673,-0.19414\\Version=AM64L-G09RevC.01\State=1-A\HF=-468
 .2774639\RMSD=9.753e-09\Dipole=-0.2242983,-0.2081702,-0.5525965\Quadru
 pole=1.5161973,-1.6763505,0.1601532,-2.1471919,0.5628666,-2.8817956\PG
 =C01 [X(C10H20O1)]\\@


 IBM COMPATIBILITY IS LIKE PREGNANCY. YOU ARE OR
 OR YOU ARE NOT. -- ADAM OSBORNE
 Job cpu time:  0 days  0 hours 11 minutes 54.3 seconds.
 File lengths (MBytes):  RWF=    121 Int=      0 D2E=      0 Chk=      7 Scr=      1
 Normal termination of Gaussian 09 at Thu Sep 19 09:11:36 2024.
