 Entering Gaussian System, Link 0=g09
 Input=/home/asarotti.iquir/SCF2/02_Mentol10_OptB_NMR_benzene.gjc
 Output=/home/asarotti.iquir/SCF2/02_Mentol10_OptB_NMR_benzene.log
 Initial command:
 /opt/ohpc/pub/apps/software/Gaussian/09/AMD64.SSE4a-enabled/g09/l1.exe /local/asarotti.iquir/Gau-1837250.inp -scrdir=/local/asarotti.iquir/
 Entering Link 1 = /opt/ohpc/pub/apps/software/Gaussian/09/AMD64.SSE4a-enabled/g09/l1.exe PID=   1837251.
  
 Copyright (c) 1988,1990,1992,1993,1995,1998,2003,2009,2011,
            Gaussian, Inc.  All Rights Reserved.
  
 This is part of the Gaussian(R) 09 program.  It is based on
 the Gaussian(R) 03 system (copyright 2003, Gaussian, Inc.),
 the Gaussian(R) 98 system (copyright 1998, Gaussian, Inc.),
 the Gaussian(R) 94 system (copyright 1995, Gaussian, Inc.),
 the Gaussian 92(TM) system (copyright 1992, Gaussian, Inc.),
 the Gaussian 90(TM) system (copyright 1990, Gaussian, Inc.),
 the Gaussian 88(TM) system (copyright 1988, Gaussian, Inc.),
 the Gaussian 86(TM) system (copyright 1986, Carnegie Mellon
 University), and the Gaussian 82(TM) system (copyright 1983,
 Carnegie Mellon University). Gaussian is a federally registered
 trademark of Gaussian, Inc.
  
 This software contains proprietary and confidential information,
 including trade secrets, belonging to Gaussian, Inc.
  
 This software is provided under written license and may be
 used, copied, transmitted, or stored only in accord with that
 written license.
  
 The following legend is applicable only to US Government
 contracts under FAR:
  
                    RESTRICTED RIGHTS LEGEND
  
 Use, reproduction and disclosure by the US Government is
 subject to restrictions as set forth in subparagraphs (a)
 and (c) of the Commercial Computer Software - Restricted
 Rights clause in FAR 52.227-19.
  
 Gaussian, Inc.
 340 Quinnipiac St., Bldg. 40, Wallingford CT 06492
  
  
 ---------------------------------------------------------------
 Warning -- This program may not be used in any manner that
 competes with the business of Gaussian, Inc. or will provide
 assistance to any competitor of Gaussian, Inc.  The licensee
 of this program is prohibited from giving any competitor of
 Gaussian, Inc. access to this program.  By using this program,
 the user acknowledges that Gaussian, Inc. is engaged in the
 business of creating and licensing software in the field of
 computational chemistry and represents and warrants to the
 licensee that it is not a competitor of Gaussian, Inc. and that
 it will not use this program in any manner prohibited above.
 ---------------------------------------------------------------
  

 Cite this work as:
 Gaussian 09, Revision C.01,
 M. J. Frisch, G. W. Trucks, H. B. Schlegel, G. E. Scuseria, 
 M. A. Robb, J. R. Cheeseman, G. Scalmani, V. Barone, B. Mennucci, 
 G. A. Petersson, H. Nakatsuji, M. Caricato, X. Li, H. P. Hratchian, 
 A. F. Izmaylov, J. Bloino, G. Zheng, J. L. Sonnenberg, M. Hada, 
 M. Ehara, K. Toyota, R. Fukuda, J. Hasegawa, M. Ishida, T. Nakajima, 
 Y. Honda, O. Kitao, H. Nakai, T. Vreven, J. A. Montgomery, Jr., 
 J. E. Peralta, F. Ogliaro, M. Bearpark, J. J. Heyd, E. Brothers, 
 K. N. Kudin, V. N. Staroverov, T. Keith, R. Kobayashi, J. Normand, 
 K. Raghavachari, A. Rendell, J. C. Burant, S. S. Iyengar, J. Tomasi, 
 M. Cossi, N. Rega, J. M. Millam, M. Klene, J. E. Knox, J. B. Cross, 
 V. Bakken, C. Adamo, J. Jaramillo, R. Gomperts, R. E. Stratmann, 
 O. Yazyev, A. J. Austin, R. Cammi, C. Pomelli, J. W. Ochterski, 
 R. L. Martin, K. Morokuma, V. G. Zakrzewski, G. A. Voth, 
 P. Salvador, J. J. Dannenberg, S. Dapprich, A. D. Daniels, 
 O. Farkas, J. B. Foresman, J. V. Ortiz, J. Cioslowski, 
 and D. J. Fox, Gaussian, Inc., Wallingford CT, 2010.
 
 ******************************************
 Gaussian 09:  AM64L-G09RevC.01 23-Sep-2011
                19-Sep-2024 
 ******************************************
 %nprocshared=4
 Will use up to    4 processors via shared memory.
 %mem=100mw
 --------------------------------------------------
 # mPW1PW91/6-31+G** nmr scrf=(pcm,solvent=benzene)
 --------------------------------------------------
 1/38=1/1;
 2/12=2,17=6,18=5,40=1/2;
 3/5=1,6=6,7=111,11=2,16=1,25=1,30=1,70=2201,72=12,74=-7/1,2,8,3;
 4//1;
 5/5=2,38=5,53=12/2;
 8/6=1,10=90,11=11/1;
 10/13=100,45=16/2;
 6/7=2,8=2,9=2,10=2,28=1/1;
 99/9=1/99;
 -------
 comment
 -------
 Charge =  0 Multiplicity = 1
 Symbolic Z-Matrix:
 6                     2.43798  -0.11946  -0.3485 
 6                     0.21263   1.04652   0.25527 
 6                     0.23124  -1.41691  -0.15805 
 6                    -0.61952  -0.13133  -0.29162 
 6                     1.59736  -1.30761  -0.85323 
 6                     1.58294   1.15945  -0.43156 
 6                     3.022    -0.35857   1.05442 
 8                    -0.51345   2.26692   0.07321 
 6                    -2.02662  -0.23264   0.38245 
 6                    -2.61872  -1.65355   0.38558 
 6                    -3.0433    0.72332  -0.26838 
 1                     3.29008   0.00663  -1.03122 
 1                     0.35764   0.87316   1.33597 
 1                    -0.31234  -2.2643   -0.58742 
 1                     0.3711   -1.65451   0.90653 
 1                    -0.77374   0.05164  -1.36758 
 1                     1.43228  -1.18895  -1.93387 
 1                     2.15483  -2.24526  -0.72602 
 1                     1.39873   1.4124   -1.48454 
 1                     2.13267   2.0085    0.0036 
 1                     3.63069   0.49568   1.37511 
 1                     2.24664  -0.51219   1.81313 
 1                     3.66595  -1.24625   1.05975 
 1                     0.04243   2.98519   0.41403 
 1                    -1.90468   0.06982   1.43426 
 1                    -2.7328   -2.04235  -0.63485 
 1                    -2.01255  -2.36719   0.95235 
 1                    -3.61646  -1.63746   0.83988 
 1                    -3.23406   0.42699  -1.30901 
 1                    -2.68272   1.75223  -0.26793 
 1                    -4.00203   0.68556   0.26388 
 
                          Input orientation:                          
 ---------------------------------------------------------------------
 Center     Atomic      Atomic             Coordinates (Angstroms)
 Number     Number       Type             X           Y           Z
 ---------------------------------------------------------------------
      1          6           0        2.437979   -0.119458   -0.348495
      2          6           0        0.212634    1.046516    0.255273
      3          6           0        0.231240   -1.416913   -0.158052
      4          6           0       -0.619523   -0.131327   -0.291621
      5          6           0        1.597359   -1.307608   -0.853230
      6          6           0        1.582936    1.159447   -0.431557
      7          6           0        3.022002   -0.358574    1.054422
      8          8           0       -0.513449    2.266921    0.073205
      9          6           0       -2.026616   -0.232643    0.382448
     10          6           0       -2.618723   -1.653550    0.385576
     11          6           0       -3.043300    0.723323   -0.268378
     12          1           0        3.290077    0.006629   -1.031216
     13          1           0        0.357635    0.873155    1.335967
     14          1           0       -0.312335   -2.264299   -0.587419
     15          1           0        0.371103   -1.654510    0.906533
     16          1           0       -0.773742    0.051641   -1.367578
     17          1           0        1.432284   -1.188946   -1.933869
     18          1           0        2.154829   -2.245258   -0.726023
     19          1           0        1.398732    1.412403   -1.484540
     20          1           0        2.132674    2.008500    0.003599
     21          1           0        3.630694    0.495678    1.375106
     22          1           0        2.246641   -0.512188    1.813127
     23          1           0        3.665948   -1.246245    1.059746
     24          1           0        0.042430    2.985194    0.414026
     25          1           0       -1.904678    0.069821    1.434259
     26          1           0       -2.732802   -2.042352   -0.634851
     27          1           0       -2.012553   -2.367192    0.952351
     28          1           0       -3.616462   -1.637460    0.839876
     29          1           0       -3.234059    0.426994   -1.309007
     30          1           0       -2.682722    1.752225   -0.267925
     31          1           0       -4.002028    0.685558    0.263879
 ---------------------------------------------------------------------
                    Distance matrix (angstroms):
                    1          2          3          4          5
     1  C    0.000000
     2  C    2.583833   0.000000
     3  C    2.566974   2.497932   0.000000
     4  C    3.058054   1.542366   1.547375   0.000000
     5  C    1.540487   2.947565   1.536718   2.571694   0.000000
     6  C    1.540648   1.536950   2.922245   2.556659   2.502874
     7  C    1.538322   3.241214   3.221572   3.888982   2.563086
     8  O    3.818843   1.431689   3.765458   2.428156   4.253357
     9  C    4.525450   2.581988   2.606252   1.563504   3.976889
    10  C    5.335029   3.914578   2.910982   2.602414   4.407909
    11  C    5.546271   3.313574   3.913489   2.570148   5.099260
    12  H    1.099126   3.493862   3.485021   3.981332   2.150393
    13  H    2.854912   1.104074   2.737239   2.147758   3.329448
    14  H    3.495948   3.456475   1.094483   2.175185   2.152404
    15  H    2.864168   2.782947   1.099707   2.176465   2.172743
    16  H    3.373864   2.143912   2.151649   1.102245   2.781049
    17  H    2.160703   3.358151   2.155922   2.832922   1.099596
    18  H    2.177551   3.945990   2.170009   3.514888   1.098245
    19  H    2.171919   2.137206   3.335811   2.807047   2.799369
    20  H    2.178391   2.162246   3.921101   3.498657   3.466596
    21  H    2.184436   3.638761   4.191046   4.608195   3.514509
    22  H    2.205325   2.998942   2.960729   3.576299   2.857222
    23  H    2.181903   4.222476   3.648202   4.629740   2.818209
    24  H    3.994866   1.952599   4.443137   3.263253   4.738343
    25  H    4.698160   2.612844   3.050898   2.161191   4.403882
    26  H    5.524174   4.359933   3.066603   2.869803   4.397480
    27  H    5.152838   4.134099   2.677804   2.913261   4.173045
    28  H    6.353960   4.712480   3.981119   3.539826   5.491752
    29  H    5.778686   3.835423   4.090597   2.860524   5.153560
    30  H    5.452639   3.025698   4.306586   2.793764   5.293794
    31  H    6.518953   4.230099   4.745415   3.523808   6.047626
                    6          7          8          9         10
     6  C    0.000000
     7  C    2.565820   0.000000
     8  O    2.424070   4.511699   0.000000
     9  C    3.953402   5.094698   2.938218   0.000000
    10  C    5.121972   5.825985   4.460924   1.539343   0.000000
    11  C    4.649612   6.301443   2.983206   1.539835   2.501489
    12  H    2.145440   2.134273   4.560206   5.506625   6.299001
    13  H    2.169670   2.948775   2.072665   2.795826   4.018232
    14  H    3.916425   4.176749   4.583539   2.829669   2.576657
    15  H    3.343259   2.954418   4.105422   2.836446   3.034873
    16  H    2.767183   4.521287   2.655386   2.170968   3.063524
    17  H    2.791879   3.485198   4.444912   4.271280   4.691092
    18  H    3.464937   2.735242   5.302663   4.771143   4.936858
    19  H    1.098495   3.495382   2.610212   4.233772   5.388631
    20  H    1.101119   2.738279   2.659623   4.739825   6.011014
    21  H    2.810326   1.096855   4.691073   5.789730   6.682332
    22  H    2.876365   1.095635   4.285892   4.515054   5.197343
    23  H    3.514296   1.096656   5.548239   5.821633   6.333837
    24  H    2.534072   4.524239   0.970091   3.825758   5.347943
    25  H    4.102683   4.959836   2.935172   1.101208   2.140001
    26  H    5.377587   6.229488   4.898643   2.192862   1.097931
    27  H    5.223019   5.421412   4.949264   2.209363   1.094514
    28  H    6.039286   6.763933   5.045856   2.170337   1.096417
    29  H    4.950742   6.733588   3.563364   2.180381   2.752983
    30  H    4.309756   6.224785   2.255444   2.189329   3.468496
    31  H    5.648011   7.145080   3.835003   2.181606   2.720252
                   11         12         13         14         15
    11  C    0.000000
    12  H    6.419286   0.000000
    13  H    3.763340   3.866994   0.000000
    14  H    4.060276   4.281523   3.740574   0.000000
    15  H    4.323500   3.877456   2.563920   1.752376   0.000000
    16  H    2.609653   4.077964   3.043691   2.486991   3.064833
    17  H    5.144073   2.386541   4.012351   2.452143   3.067693
    18  H    6.003537   2.540261   4.148037   2.471128   2.489157
    19  H    4.656772   2.399769   3.054494   4.153398   4.022338
    20  H    5.340071   2.533360   2.492985   4.958244   4.163660
    21  H    6.877140   2.479027   3.294986   5.197736   3.932913
    22  H    5.817442   3.073795   2.390649   3.921846   2.375806
    23  H    7.117382   2.466393   3.938666   4.424514   3.323576
    24  H    3.886318   4.637649   2.325949   5.355924   4.677333
    25  H    2.149999   5.750482   2.402721   3.474314   2.903617
    26  H    2.807075   6.374206   4.683493   2.431084   3.487193
    27  H    3.479066   6.139010   4.032964   2.296132   2.488339
    28  H    2.670213   7.341954   4.726811   3.653403   3.988159
    29  H    1.098685   6.543564   4.482768   4.037353   4.715768
    30  H    1.090255   6.269294   3.548099   4.674749   4.723457
    31  H    1.097216   7.437272   4.493465   4.800021   5.001320
                   16         17         18         19         20
    16  H    0.000000
    17  H    2.593510   0.000000
    18  H    3.776753   1.759761   0.000000
    19  H    2.566125   2.640083   3.811235   0.000000
    20  H    3.762536   3.803681   4.315935   1.763111   0.000000
    21  H    5.207547   4.315122   3.755749   3.741606   2.532533
    22  H    4.422386   3.893733   3.075588   3.911216   3.105036
    23  H    5.223721   3.735541   2.543714   4.322276   3.749632
    24  H    3.527886   4.986757   5.754960   2.813855   2.343395
    25  H    3.021529   4.905517   5.148398   4.608083   4.701646
    26  H    2.959664   4.445637   4.892690   5.452236   6.363166
    27  H    3.573161   4.646012   4.494316   5.644523   6.101616
    28  H    3.975798   5.777946   6.010762   6.313220   6.858932
    29  H    2.489474   4.977597   6.043254   4.739683   5.746818
    30  H    2.783061   5.325329   6.292188   4.272458   4.829849
    31  H    3.672238   6.154316   6.890318   5.723066   6.281122
                   21         22         23         24         25
    21  H    0.000000
    22  H    1.767274   0.000000
    23  H    1.770590   1.766594   0.000000
    24  H    4.471801   4.364368   5.608201   0.000000
    25  H    5.552044   4.209005   5.736215   3.651233   0.000000
    26  H    7.139720   5.755767   6.667042   5.837660   3.070550
    27  H    6.342002   4.724691   5.789078   5.758540   2.486545
    28  H    7.573508   6.048920   7.296224   5.910818   2.489639
    29  H    7.371161   6.377135   7.484705   4.499846   3.069256
    30  H    6.643620   5.810074   7.145568   3.067853   2.516598
    31  H    7.715525   6.548330   7.947523   4.654945   2.479475
                   26         27         28         29         30
    26  H    0.000000
    27  H    1.772989   0.000000
    28  H    1.766242   1.765696   0.000000
    29  H    2.608336   3.796484   3.004314   0.000000
    30  H    3.812605   4.348310   3.686334   1.773150   0.000000
    31  H    3.140086   3.708273   2.424221   1.769351   1.777966
                   31
    31  H    0.000000
 Stoichiometry    C10H20O
 Framework group  C1[X(C10H20O)]
 Deg. of freedom    87
 Full point group                 C1      NOp   1
 Largest Abelian subgroup         C1      NOp   1
 Largest concise Abelian subgroup C1      NOp   1
                         Standard orientation:                         
 ---------------------------------------------------------------------
 Center     Atomic      Atomic             Coordinates (Angstroms)
 Number     Number       Type             X           Y           Z
 ---------------------------------------------------------------------
      1          6           0        2.437979   -0.119458   -0.348495
      2          6           0        0.212634    1.046516    0.255273
      3          6           0        0.231240   -1.416913   -0.158052
      4          6           0       -0.619523   -0.131327   -0.291621
      5          6           0        1.597359   -1.307608   -0.853230
      6          6           0        1.582936    1.159447   -0.431557
      7          6           0        3.022002   -0.358574    1.054422
      8          8           0       -0.513449    2.266921    0.073205
      9          6           0       -2.026616   -0.232643    0.382448
     10          6           0       -2.618723   -1.653550    0.385576
     11          6           0       -3.043300    0.723323   -0.268378
     12          1           0        3.290077    0.006629   -1.031216
     13          1           0        0.357635    0.873155    1.335967
     14          1           0       -0.312335   -2.264299   -0.587419
     15          1           0        0.371103   -1.654510    0.906533
     16          1           0       -0.773742    0.051641   -1.367578
     17          1           0        1.432284   -1.188946   -1.933869
     18          1           0        2.154829   -2.245258   -0.726023
     19          1           0        1.398732    1.412403   -1.484540
     20          1           0        2.132674    2.008500    0.003599
     21          1           0        3.630694    0.495679    1.375106
     22          1           0        2.246641   -0.512188    1.813127
     23          1           0        3.665948   -1.246244    1.059746
     24          1           0        0.042430    2.985194    0.414026
     25          1           0       -1.904678    0.069821    1.434259
     26          1           0       -2.732802   -2.042352   -0.634851
     27          1           0       -2.012553   -2.367192    0.952351
     28          1           0       -3.616462   -1.637460    0.839876
     29          1           0       -3.234059    0.426994   -1.309007
     30          1           0       -2.682722    1.752225   -0.267925
     31          1           0       -4.002028    0.685558    0.263879
 ---------------------------------------------------------------------
 Rotational constants (GHZ):      1.6650709      0.7530109      0.5875863
 Standard basis: 6-31+G(d,p) (6D, 7F)
 There are   309 symmetry adapted basis functions of A   symmetry.
 Integral buffers will be    131072 words long.
 Raffenetti 2 integral format.
 Two-electron integral symmetry is turned on.
   309 basis functions,   492 primitive gaussians,   309 cartesian basis functions
    44 alpha electrons       44 beta electrons
       nuclear repulsion energy       691.6538211852 Hartrees.
 NAtoms=   31 NActive=   31 NUniq=   31 SFac= 1.00D+00 NAtFMM=   60 NAOKFM=F Big=F
 ------------------------------------------------------------------------------
 Polarizable Continuum Model (PCM)
 =================================
 Model                : PCM.
 Atomic radii         : UFF (Universal Force Field).
 Polarization charges : Total charges.
 Charge compensation  : None.
 Solution method      : Matrix inversion.
 Cavity type          : Scaled VdW (van der Waals Surface) (Alpha=1.100).
 Cavity algorithm     : GePol (No added spheres)
                        Default sphere list used, NSphG=   31.
                        Lebedev-Laikov grids with approx.  5.0 points / Ang**2.
                        Smoothing algorithm: Karplus/York (Gamma=1.0000).
                        Polarization charges: spherical gaussians, with
                                              point-specific exponents (IZeta= 3).
                        Self-potential: point-specific (ISelfS= 7).
                        Self-field    : sphere-specific E.n sum rule (ISelfD= 2).
 Solvent              : Benzene, Eps=   2.270600 Eps(inf)=   2.253301
 ------------------------------------------------------------------------------
 One-electron integrals computed using PRISM.
 NBasis=   309 RedAO= T  NBF=   309
 NBsUse=   309 1.00D-06 NBFU=   309
 Harris functional with IExCor=  908 diagonalized for initial guess.
 ExpMin= 4.38D-02 ExpMax= 5.48D+03 ExpMxC= 8.25D+02 IAcc=2 IRadAn=         4 AccDes= 0.00D+00
 HarFok:  IExCor=  908 AccDes= 0.00D+00 IRadAn=         4 IDoV= 1
 ScaDFX=  1.000000  1.000000  1.000000  1.000000
 FoFCou: FMM=F IPFlag=           0 FMFlag=      100000 FMFlg1=           0
         NFxFlg=           0 DoJE=T BraDBF=F KetDBF=T FulRan=T
         Omega=  0.000000  0.000000  1.000000  0.000000  0.000000 ICntrl=     500 IOpCl=  0
         NMat0=    1 NMatS0=    1 NMatT0=    0 NMatD0=    1 NMtDS0=    0 NMtDT0=    0
         I1Cent=           4 NGrid=           0.
 Petite list used in FoFCou.
 Initial guess orbital symmetries:
       Occupied  (A) (A) (A) (A) (A) (A) (A) (A) (A) (A) (A) (A)
                 (A) (A) (A) (A) (A) (A) (A) (A) (A) (A) (A) (A)
                 (A) (A) (A) (A) (A) (A) (A) (A) (A) (A) (A) (A)
                 (A) (A) (A) (A) (A) (A) (A) (A)
       Virtual   (A) (A) (A) (A) (A) (A) (A) (A) (A) (A) (A) (A)
                 (A) (A) (A) (A) (A) (A) (A) (A) (A) (A) (A) (A)
                 (A) (A) (A) (A) (A) (A) (A) (A) (A) (A) (A) (A)
                 (A) (A) (A) (A) (A) (A) (A) (A) (A) (A) (A) (A)
                 (A) (A) (A) (A) (A) (A) (A) (A) (A) (A) (A) (A)
                 (A) (A) (A) (A) (A) (A) (A) (A) (A) (A) (A) (A)
                 (A) (A) (A) (A) (A) (A) (A) (A) (A) (A) (A) (A)
                 (A) (A) (A) (A) (A) (A) (A) (A) (A) (A) (A) (A)
                 (A) (A) (A) (A) (A) (A) (A) (A) (A) (A) (A) (A)
                 (A) (A) (A) (A) (A) (A) (A) (A) (A) (A) (A) (A)
                 (A) (A) (A) (A) (A) (A) (A) (A) (A) (A) (A) (A)
                 (A) (A) (A) (A) (A) (A) (A) (A) (A) (A) (A) (A)
                 (A) (A) (A) (A) (A) (A) (A) (A) (A) (A) (A) (A)
                 (A) (A) (A) (A) (A) (A) (A) (A) (A) (A) (A) (A)
                 (A) (A) (A) (A) (A) (A) (A) (A) (A) (A) (A) (A)
                 (A) (A) (A) (A) (A) (A) (A) (A) (A) (A) (A) (A)
                 (A) (A) (A) (A) (A) (A) (A) (A) (A) (A) (A) (A)
                 (A) (A) (A) (A) (A) (A) (A) (A) (A) (A) (A) (A)
                 (A) (A) (A) (A) (A) (A) (A) (A) (A) (A) (A) (A)
                 (A) (A) (A) (A) (A) (A) (A) (A) (A) (A) (A) (A)
                 (A) (A) (A) (A) (A) (A) (A) (A) (A) (A) (A) (A)
                 (A) (A) (A) (A) (A) (A) (A) (A) (A) (A) (A) (A)
                 (A)
 The electronic state of the initial guess is 1-A.
 Requested convergence on RMS density matrix=1.00D-08 within 128 cycles.
 Requested convergence on MAX density matrix=1.00D-06.
 Requested convergence on             energy=1.00D-06.
 No special actions if energy rises.
 Error on total polarization charges =  0.00936
 SCF Done:  E(RmPW1PW91) =  -468.278814358     A.U. after   12 cycles
             Convg  =    0.4504D-08             -V/T =  2.0099
 Range of M.O.s used for correlation:     1   309
 NBasis=   309 NAE=    44 NBE=    44 NFC=     0 NFV=     0
 NROrb=    309 NOA=    44 NOB=    44 NVA=   265 NVB=   265

 **** Warning!!: The largest alpha MO coefficient is  0.65351764D+02

 NEqPCM:  Using equilibrium solvation (IEInf=0, Eps=   2.2706, EpsInf=   2.2533)
          Differentiating once with respect to magnetic field using GIAOs.
          Electric field/nuclear overlap derivatives assumed to be zero.
 FoFCou: FMM=F IPFlag=           0 FMFlag=    10101102 FMFlg1=           0
         NFxFlg=    40000000 DoJE=F BraDBF=F KetDBF=T FulRan=T
         Omega=  0.000000  0.000000  1.000000  0.000000  0.000000 ICntrl=    6100 IOpCl=  0
         NMat0=    1 NMatS0=    1 NMatT0=    0 NMatD0=    1 NMtDS0=    0 NMtDT0=    0
         I1Cent=           7 NGrid=        1930.
 Symmetry not used in FoFCou.
          There are     3 degrees of freedom in the 1st order CPHF.  IDoFFX=0.
      3 vectors produced by pass  0 Test12= 3.89D-13 3.33D-08 XBig12= 3.90D+01 1.29D+00.
 AX will form     3 AO Fock derivatives at one time.
      3 vectors produced by pass  1 Test12= 3.89D-13 3.33D-08 XBig12= 8.18D-02 6.67D-02.
      3 vectors produced by pass  2 Test12= 3.89D-13 3.33D-08 XBig12= 1.59D-04 2.54D-03.
      3 vectors produced by pass  3 Test12= 3.89D-13 3.33D-08 XBig12= 5.23D-07 1.61D-04.
      3 vectors produced by pass  4 Test12= 3.89D-13 3.33D-08 XBig12= 1.30D-09 7.42D-06.
      3 vectors produced by pass  5 Test12= 3.89D-13 3.33D-08 XBig12= 2.59D-12 3.21D-07.
 Inverted reduced A of dimension    18 with in-core refinement.
 Calculating GIAO nuclear magnetic shielding tensors.
 SCF GIAO Magnetic shielding tensor (ppm):
      1  C    Isotropic =   163.8666   Anisotropy =     4.6319
   XX=   165.1538   YX=     0.2428   ZX=     0.9985
   XY=     1.9405   YY=   166.2863   ZY=    -1.2918
   XZ=     0.4908   YZ=     0.7957   ZZ=   160.1596
   Eigenvalues:   160.0241   164.6211   166.9545
      2  C    Isotropic =   121.1434   Anisotropy =    44.5005
   XX=   116.6300   YX=    -9.4970   ZX=     4.8633
   XY=    -9.7743   YY=   146.3462   ZY=    -7.9749
   XZ=     2.8763   YZ=    -8.5251   ZZ=   100.4540
   Eigenvalues:    98.7215   113.8983   150.8104
      3  C    Isotropic =   169.6668   Anisotropy =    18.8235
   XX=   178.5437   YX=    -7.1606   ZX=    -6.5593
   XY=    -3.3613   YY=   170.9731   ZY=    -1.3463
   XZ=    -4.5902   YZ=    -0.0838   ZZ=   159.4837
   Eigenvalues:   157.6253   169.1593   182.2159
      4  C    Isotropic =   145.4191   Anisotropy =    12.7203
   XX=   151.7088   YX=     3.8994   ZX=     0.2690
   XY=    -0.9462   YY=   136.1864   ZY=    -2.8948
   XZ=    -5.5292   YZ=    -6.1730   ZZ=   148.3620
   Eigenvalues:   134.6635   147.6944   153.8993
      5  C    Isotropic =   162.2852   Anisotropy =    12.3496
   XX=   165.3246   YX=     3.5485   ZX=     4.9288
   XY=     4.1720   YY=   162.1771   ZY=     6.4449
   XZ=     3.0714   YZ=     0.9106   ZZ=   159.3540
   Eigenvalues:   156.5840   159.7533   170.5183
      6  C    Isotropic =   151.1506   Anisotropy =    27.1185
   XX=   162.5972   YX=   -15.0461   ZX=    -2.7193
   XY=    -5.1027   YY=   152.8531   ZY=    -7.1767
   XZ=    -7.7175   YZ=     2.1168   ZZ=   138.0015
   Eigenvalues:   135.5233   148.6989   169.2296
      7  C    Isotropic =   176.4844   Anisotropy =    30.4533
   XX=   167.7412   YX=    -4.1182   ZX=    16.9193
   XY=    -4.7591   YY=   178.4202   ZY=    -1.7696
   XZ=    20.8780   YZ=    -1.6614   ZZ=   183.2919
   Eigenvalues:   154.7602   177.9065   196.7866
      8  O    Isotropic =   273.6037   Anisotropy =    67.0398
   XX=   275.4840   YX=    25.3052   ZX=     7.8764
   XY=     5.0897   YY=   306.6268   ZY=    18.1772
   XZ=    12.1485   YZ=    18.7508   ZZ=   238.7001
   Eigenvalues:   233.0861   269.4280   318.2969
      9  C    Isotropic =   160.0965   Anisotropy =    20.1548
   XX=   170.5177   YX=     2.2849   ZX=    -6.9303
   XY=     2.6387   YY=   153.4869   ZY=     1.9763
   XZ=    -7.0453   YZ=     0.7121   ZZ=   156.2849
   Eigenvalues:   151.2103   155.5462   173.5330
     10  C    Isotropic =   174.5692   Anisotropy =    25.4539
   XX=   172.7258   YX=    11.2531   ZX=    -1.2685
   XY=     2.9298   YY=   188.5965   ZY=    -4.0640
   XZ=     0.2780   YZ=    -1.1615   ZZ=   162.3854
   Eigenvalues:   162.1227   170.0464   191.5385
     11  C    Isotropic =   170.2197   Anisotropy =    37.8662
   XX=   179.9942   YX=   -17.1338   ZX=     6.5492
   XY=   -13.8452   YY=   171.6887   ZY=    -7.7217
   XZ=     5.7907   YZ=   -13.4638   ZZ=   158.9760
   Eigenvalues:   152.6672   162.5280   195.4638
     12  H    Isotropic =    29.6350   Anisotropy =    10.0208
   XX=    33.2741   YX=     0.6944   ZX=    -4.2196
   XY=     0.8606   YY=    25.7234   ZY=    -0.8059
   XZ=    -4.3705   YZ=    -0.7732   ZZ=    29.9074
   Eigenvalues:    25.5794    27.0100    36.3155
     13  H    Isotropic =    27.8597   Anisotropy =     3.8421
   XX=    28.0930   YX=    -2.4297   ZX=     1.3622
   XY=    -2.2653   YY=    27.2045   ZY=    -0.9066
   XZ=     0.6326   YZ=     0.5058   ZZ=    28.2816
   Eigenvalues:    25.1805    27.9775    30.4211
     14  H    Isotropic =    30.0206   Anisotropy =     8.4169
   XX=    32.7414   YX=     2.2121   ZX=    -0.8190
   XY=     2.8739   YY=    32.9995   ZY=     3.0852
   XZ=    -1.2870   YZ=     2.9231   ZZ=    24.3208
   Eigenvalues:    23.0475    31.3824    35.6318
     15  H    Isotropic =    30.3408   Anisotropy =     5.8328
   XX=    31.3272   YX=    -0.3226   ZX=    -0.0275
   XY=     0.2036   YY=    28.7100   ZY=    -4.3937
   XZ=     0.6027   YZ=    -4.0193   ZZ=    30.9851
   Eigenvalues:    25.4871    31.3059    34.2293
     16  H    Isotropic =    30.5461   Anisotropy =     3.3819
   XX=    32.1767   YX=    -1.0629   ZX=     0.4618
   XY=    -0.7591   YY=    27.7097   ZY=    -0.6317
   XZ=     0.5226   YZ=    -1.0834   ZZ=    31.7518
   Eigenvalues:    27.4003    31.4372    32.8006
     17  H    Isotropic =    30.0579   Anisotropy =     8.7504
   XX=    28.3188   YX=     0.4911   ZX=    -1.0790
   XY=     0.6330   YY=    26.8253   ZY=     3.1786
   XZ=    -0.7232   YZ=     2.1746   ZZ=    35.0295
   Eigenvalues:    25.7755    28.5067    35.8915
     18  H    Isotropic =    30.1251   Anisotropy =     9.6052
   XX=    30.8983   YX=    -3.5480   ZX=    -0.8133
   XY=    -3.6678   YY=    33.7312   ZY=     1.7574
   XZ=    -0.5940   YZ=     1.8976   ZZ=    25.7457
   Eigenvalues:    25.3457    28.5009    36.5285
     19  H    Isotropic =    29.9647   Anisotropy =     6.1486
   XX=    28.6709   YX=     0.1778   ZX=    -0.9506
   XY=    -0.7833   YY=    29.7847   ZY=    -3.8179
   XZ=    -0.8002   YZ=    -2.7868   ZZ=    31.4385
   Eigenvalues:    26.8659    28.9645    34.0637
     20  H    Isotropic =    30.2277   Anisotropy =     6.8222
   XX=    31.2079   YX=     2.1128   ZX=     0.7655
   XY=     2.2120   YY=    33.2494   ZY=     1.2969
   XZ=     1.2188   YZ=     0.1738   ZZ=    26.2259
   Eigenvalues:    26.0198    29.8876    34.7759
     21  H    Isotropic =    30.7282   Anisotropy =    10.2435
   XX=    32.0334   YX=     3.4069   ZX=     4.1553
   XY=     3.0962   YY=    30.5884   ZY=     1.5200
   XZ=     4.5657   YZ=     2.9403   ZZ=    29.5628
   Eigenvalues:    26.2534    28.3740    37.5572
     22  H    Isotropic =    30.2216   Anisotropy =     5.5214
   XX=    31.2030   YX=     0.0574   ZX=     0.4137
   XY=     0.2088   YY=    25.8841   ZY=    -1.5558
   XZ=    -0.9157   YZ=    -1.5278   ZZ=    33.5777
   Eigenvalues:    25.5854    31.1769    33.9026
     23  H    Isotropic =    30.7944   Anisotropy =    10.9739
   XX=    32.5417   YX=    -4.8708   ZX=     2.8039
   XY=    -4.9644   YY=    31.6403   ZY=    -0.7846
   XZ=     3.2973   YZ=    -2.2005   ZZ=    28.2013
   Eigenvalues:    26.2308    28.0421    38.1104
     24  H    Isotropic =    31.1466   Anisotropy =    18.1106
   XX=    29.4759   YX=     3.8198   ZX=     3.5337
   XY=     4.8209   YY=    39.8619   ZY=     5.4509
   XZ=     3.2190   YZ=     4.5236   ZZ=    24.1021
   Eigenvalues:    21.9803    28.2392    43.2204
     25  H    Isotropic =    29.9275   Anisotropy =     5.4478
   XX=    28.6514   YX=     1.0997   ZX=    -0.7434
   XY=     1.2584   YY=    28.1626   ZY=     1.6227
   XZ=    -0.4307   YZ=     1.9229   ZZ=    32.9684
   Eigenvalues:    26.7044    29.5187    33.5594
     26  H    Isotropic =    30.9874   Anisotropy =     8.0730
   XX=    30.1375   YX=     2.1743   ZX=     1.7140
   XY=     2.4482   YY=    31.6221   ZY=     4.0992
   XZ=     1.0400   YZ=     3.5778   ZZ=    31.2026
   Eigenvalues:    27.3834    29.2095    36.3694
     27  H    Isotropic =    30.4523   Anisotropy =     8.3635
   XX=    30.5065   YX=     0.2512   ZX=     0.1617
   XY=    -1.1228   YY=    33.5026   ZY=    -4.8434
   XZ=     0.3469   YZ=    -4.4099   ZZ=    27.3476
   Eigenvalues:    24.8684    30.4605    36.0279
     28  H    Isotropic =    30.8605   Anisotropy =    10.2514
   XX=    34.9638   YX=     2.0837   ZX=    -3.9512
   XY=     2.9830   YY=    29.5772   ZY=    -1.4383
   XZ=    -3.6747   YZ=    -1.4828   ZZ=    28.0405
   Eigenvalues:    26.3130    28.5737    37.6947
     29  H    Isotropic =    30.9726   Anisotropy =     7.8508
   XX=    31.0978   YX=    -0.4695   ZX=     3.9055
   XY=    -0.9482   YY=    28.1911   ZY=    -0.9204
   XZ=     3.1607   YZ=    -0.1603   ZZ=    33.6289
   Eigenvalues:    27.9866    28.7247    36.2065
     30  H    Isotropic =    29.1455   Anisotropy =     7.2942
   XX=    31.0038   YX=     0.0910   ZX=     1.4180
   XY=     1.2538   YY=    33.8020   ZY=    -0.6078
   XZ=     1.2785   YZ=    -1.5461   ZZ=    22.6305
   Eigenvalues:    22.2998    31.1283    34.0083
     31  H    Isotropic =    30.7484   Anisotropy =    10.8056
   XX=    36.5993   YX=    -2.1429   ZX=    -3.2055
   XY=    -3.0923   YY=    28.2991   ZY=    -0.0359
   XZ=    -2.0563   YZ=    -0.1088   ZZ=    27.3467
   Eigenvalues:    26.2746    28.0184    37.9521
 End of Minotr Frequency-dependent properties file   721 does not exist.
 End of Minotr Frequency-dependent properties file   722 does not exist.

 **********************************************************************

            Population analysis using the SCF density.

 **********************************************************************

 Orbital symmetries:
       Occupied  (A) (A) (A) (A) (A) (A) (A) (A) (A) (A) (A) (A)
                 (A) (A) (A) (A) (A) (A) (A) (A) (A) (A) (A) (A)
                 (A) (A) (A) (A) (A) (A) (A) (A) (A) (A) (A) (A)
                 (A) (A) (A) (A) (A) (A) (A) (A)
       Virtual   (A) (A) (A) (A) (A) (A) (A) (A) (A) (A) (A) (A)
                 (A) (A) (A) (A) (A) (A) (A) (A) (A) (A) (A) (A)
                 (A) (A) (A) (A) (A) (A) (A) (A) (A) (A) (A) (A)
                 (A) (A) (A) (A) (A) (A) (A) (A) (A) (A) (A) (A)
                 (A) (A) (A) (A) (A) (A) (A) (A) (A) (A) (A) (A)
                 (A) (A) (A) (A) (A) (A) (A) (A) (A) (A) (A) (A)
                 (A) (A) (A) (A) (A) (A) (A) (A) (A) (A) (A) (A)
                 (A) (A) (A) (A) (A) (A) (A) (A) (A) (A) (A) (A)
                 (A) (A) (A) (A) (A) (A) (A) (A) (A) (A) (A) (A)
                 (A) (A) (A) (A) (A) (A) (A) (A) (A) (A) (A) (A)
                 (A) (A) (A) (A) (A) (A) (A) (A) (A) (A) (A) (A)
                 (A) (A) (A) (A) (A) (A) (A) (A) (A) (A) (A) (A)
                 (A) (A) (A) (A) (A) (A) (A) (A) (A) (A) (A) (A)
                 (A) (A) (A) (A) (A) (A) (A) (A) (A) (A) (A) (A)
                 (A) (A) (A) (A) (A) (A) (A) (A) (A) (A) (A) (A)
                 (A) (A) (A) (A) (A) (A) (A) (A) (A) (A) (A) (A)
                 (A) (A) (A) (A) (A) (A) (A) (A) (A) (A) (A) (A)
                 (A) (A) (A) (A) (A) (A) (A) (A) (A) (A) (A) (A)
                 (A) (A) (A) (A) (A) (A) (A) (A) (A) (A) (A) (A)
                 (A) (A) (A) (A) (A) (A) (A) (A) (A) (A) (A) (A)
                 (A) (A) (A) (A) (A) (A) (A) (A) (A) (A) (A) (A)
                 (A) (A) (A) (A) (A) (A) (A) (A) (A) (A) (A) (A)
                 (A)
 The electronic state is 1-A.
 Alpha  occ. eigenvalues --  -19.24498 -10.29506 -10.25281 -10.24726 -10.24694
 Alpha  occ. eigenvalues --  -10.24150 -10.24057 -10.24034 -10.23534 -10.22890
 Alpha  occ. eigenvalues --  -10.21866  -1.05102  -0.86049  -0.81882  -0.76317
 Alpha  occ. eigenvalues --   -0.75308  -0.70019  -0.69308  -0.63229  -0.62033
 Alpha  occ. eigenvalues --   -0.57130  -0.55586  -0.52639  -0.48873  -0.46570
 Alpha  occ. eigenvalues --   -0.45791  -0.45678  -0.43587  -0.42592  -0.40937
 Alpha  occ. eigenvalues --   -0.40575  -0.39300  -0.38969  -0.38285  -0.37369
 Alpha  occ. eigenvalues --   -0.35738  -0.35247  -0.34674  -0.33086  -0.32707
 Alpha  occ. eigenvalues --   -0.31763  -0.31278  -0.30060  -0.27868
 Alpha virt. eigenvalues --    0.00759   0.01477   0.01909   0.02448   0.03692
 Alpha virt. eigenvalues --    0.04282   0.04904   0.05082   0.05940   0.06668
 Alpha virt. eigenvalues --    0.07237   0.07546   0.07616   0.08927   0.09292
 Alpha virt. eigenvalues --    0.09736   0.10146   0.10730   0.11187   0.11575
 Alpha virt. eigenvalues --    0.12249   0.13249   0.13860   0.14269   0.14962
 Alpha virt. eigenvalues --    0.15351   0.15796   0.16111   0.16715   0.17445
 Alpha virt. eigenvalues --    0.17922   0.18571   0.18999   0.19366   0.19612
 Alpha virt. eigenvalues --    0.20149   0.21431   0.21582   0.22008   0.22342
 Alpha virt. eigenvalues --    0.22966   0.23060   0.23722   0.23865   0.24151
 Alpha virt. eigenvalues --    0.24695   0.25499   0.26023   0.26568   0.27550
 Alpha virt. eigenvalues --    0.27908   0.28451   0.29088   0.29166   0.30345
 Alpha virt. eigenvalues --    0.30641   0.30876   0.31539   0.32880   0.33572
 Alpha virt. eigenvalues --    0.34133   0.35359   0.35693   0.36268   0.36611
 Alpha virt. eigenvalues --    0.37982   0.38600   0.39627   0.40211   0.42789
 Alpha virt. eigenvalues --    0.43375   0.44861   0.47462   0.49233   0.52886
 Alpha virt. eigenvalues --    0.62304   0.63579   0.64309   0.66081   0.66128
 Alpha virt. eigenvalues --    0.67705   0.70142   0.70978   0.71797   0.72740
 Alpha virt. eigenvalues --    0.72970   0.74431   0.74816   0.75604   0.76609
 Alpha virt. eigenvalues --    0.77782   0.78837   0.81366   0.81927   0.83220
 Alpha virt. eigenvalues --    0.85197   0.85768   0.87152   0.89955   0.94305
 Alpha virt. eigenvalues --    0.96371   0.98052   0.98920   0.99620   1.00737
 Alpha virt. eigenvalues --    1.01581   1.01936   1.03072   1.03292   1.05737
 Alpha virt. eigenvalues --    1.06403   1.07861   1.09001   1.10004   1.11448
 Alpha virt. eigenvalues --    1.13435   1.15041   1.15678   1.16278   1.16810
 Alpha virt. eigenvalues --    1.18124   1.18226   1.19394   1.20591   1.22425
 Alpha virt. eigenvalues --    1.23378   1.24748   1.26306   1.28409   1.32020
 Alpha virt. eigenvalues --    1.36169   1.37591   1.39746   1.41217   1.45178
 Alpha virt. eigenvalues --    1.49065   1.50742   1.52658   1.54377   1.56896
 Alpha virt. eigenvalues --    1.58765   1.60674   1.63219   1.64845   1.66287
 Alpha virt. eigenvalues --    1.69756   1.72806   1.75534   1.79306   1.79724
 Alpha virt. eigenvalues --    1.81927   1.85153   1.86565   1.87377   1.87682
 Alpha virt. eigenvalues --    1.89567   1.90750   1.90941   1.92187   1.93449
 Alpha virt. eigenvalues --    1.94563   1.97660   1.99133   2.00596   2.03872
 Alpha virt. eigenvalues --    2.05064   2.06296   2.07239   2.08540   2.09216
 Alpha virt. eigenvalues --    2.09794   2.11754   2.13098   2.13914   2.15529
 Alpha virt. eigenvalues --    2.16774   2.17941   2.18604   2.19288   2.19888
 Alpha virt. eigenvalues --    2.21016   2.22942   2.24006   2.27243   2.30435
 Alpha virt. eigenvalues --    2.31448   2.32325   2.35432   2.37833   2.39116
 Alpha virt. eigenvalues --    2.39877   2.40622   2.41325   2.44297   2.45610
 Alpha virt. eigenvalues --    2.48013   2.48258   2.52156   2.53362   2.56902
 Alpha virt. eigenvalues --    2.58587   2.61306   2.61687   2.62697   2.64706
 Alpha virt. eigenvalues --    2.65900   2.67078   2.70710   2.72558   2.73363
 Alpha virt. eigenvalues --    2.73800   2.74516   2.76742   2.77282   2.78326
 Alpha virt. eigenvalues --    2.79662   2.80632   2.83215   2.86001   2.87347
 Alpha virt. eigenvalues --    2.88136   2.90361   2.91290   2.91740   2.92152
 Alpha virt. eigenvalues --    2.93747   2.94206   2.94658   2.96803   2.97404
 Alpha virt. eigenvalues --    2.99255   3.05300   3.05909   3.13749   3.29483
 Alpha virt. eigenvalues --    3.29757   3.32144   3.35888   3.36745   3.38358
 Alpha virt. eigenvalues --    3.40071   3.43580   3.46554   3.49171   3.50426
 Alpha virt. eigenvalues --    3.51493   3.54132   3.54179   3.55569   3.56660
 Alpha virt. eigenvalues --    3.58525   3.59363   3.60218   3.64430   4.37006
 Alpha virt. eigenvalues --    4.43825   4.50855   4.51920   4.54463   4.61938
 Alpha virt. eigenvalues --    4.65864   4.75632   4.82718   4.86921   4.91209
          Condensed to atoms (all electrons):
              1          2          3          4          5          6
     1  C    6.450121  -0.471655  -0.423427   0.319303  -0.019089  -0.303139
     2  C   -0.471655   7.064867  -0.144480  -1.186861   0.197870  -0.150775
     3  C   -0.423427  -0.144480   6.988642  -1.154329  -0.287381   0.362147
     4  C    0.319303  -1.186861  -1.154329   9.530946  -0.217178  -0.210291
     5  C   -0.019089   0.197870  -0.287381  -0.217178   6.403857  -0.062697
     6  C   -0.303139  -0.150775   0.362147  -0.210291  -0.062697   6.338484
     7  C    0.178964   0.029248  -0.062729   0.030525  -0.069823  -0.077372
     8  O   -0.001879   0.320505   0.074081  -0.353104   0.016056  -0.064274
     9  C    0.000339   0.301921   0.697267  -1.951016  -0.020495  -0.029950
    10  C    0.006581  -0.039920  -0.113562   0.387888   0.009606  -0.020563
    11  C    0.018898  -0.083745  -0.097368   0.267651  -0.055820  -0.001049
    12  H    0.254597   0.040762   0.048727  -0.013650  -0.028145   0.012399
    13  H    0.063362   0.385185  -0.011359  -0.044450  -0.039606  -0.072907
    14  H    0.037512   0.033068   0.280945  -0.030820   0.045805  -0.006826
    15  H    0.032609   0.017764   0.401022  -0.054919  -0.079990  -0.040556
    16  H    0.030258   0.027467  -0.040542   0.304027  -0.039114  -0.041585
    17  H    0.024219  -0.004532  -0.065765   0.047743   0.354275  -0.054529
    18  H   -0.094123  -0.013818  -0.066387   0.032216   0.423320   0.040608
    19  H    0.035973  -0.087266  -0.004751   0.042559  -0.060487   0.381719
    20  H   -0.083948  -0.035135  -0.024292   0.027717   0.043251   0.402035
    21  H   -0.094764   0.008011  -0.013788  -0.008134   0.040234  -0.000222
    22  H   -0.068867   0.025839   0.010172   0.010987  -0.025242  -0.015163
    23  H   -0.097333  -0.013147   0.007470  -0.004316   0.003954   0.033581
    24  H    0.006344  -0.003516  -0.019040   0.092317   0.001530  -0.043728
    25  H   -0.000075   0.030666  -0.045954  -0.003354  -0.000665   0.003758
    26  H    0.000736   0.005572  -0.029459   0.037095   0.000570  -0.000606
    27  H   -0.000847  -0.003490   0.034696  -0.053342   0.003266  -0.000419
    28  H   -0.000124  -0.003533  -0.014920   0.076163   0.000267   0.000210
    29  H   -0.000416   0.012948  -0.011731   0.007965  -0.000195   0.000971
    30  H    0.000470  -0.011860  -0.001423   0.019464  -0.001196  -0.001382
    31  H   -0.000171   0.006424  -0.004593   0.038100   0.000152  -0.000178
              7          8          9         10         11         12
     1  C    0.178964  -0.001879   0.000339   0.006581   0.018898   0.254597
     2  C    0.029248   0.320505   0.301921  -0.039920  -0.083745   0.040762
     3  C   -0.062729   0.074081   0.697267  -0.113562  -0.097368   0.048727
     4  C    0.030525  -0.353104  -1.951016   0.387888   0.267651  -0.013650
     5  C   -0.069823   0.016056  -0.020495   0.009606  -0.055820  -0.028145
     6  C   -0.077372  -0.064274  -0.029950  -0.020563  -0.001049   0.012399
     7  C    5.354630  -0.001092  -0.005223   0.000327   0.000004  -0.024952
     8  O   -0.001092   8.317582   0.108446  -0.015622  -0.043169  -0.000810
     9  C   -0.005223   0.108446   7.716907  -0.473042  -0.229490  -0.000088
    10  C    0.000327  -0.015622  -0.473042   5.674525  -0.054031   0.000360
    11  C    0.000004  -0.043169  -0.229490  -0.054031   5.534446  -0.000004
    12  H   -0.024952  -0.000810  -0.000088   0.000360  -0.000004   0.574794
    13  H    0.012311  -0.049527  -0.015851   0.010349   0.009364  -0.000226
    14  H    0.000869  -0.000532  -0.016777  -0.005213  -0.008124  -0.000131
    15  H    0.008536   0.000039   0.029082  -0.015262   0.007489  -0.000092
    16  H    0.003617   0.000957   0.000823  -0.018612   0.036421  -0.000092
    17  H    0.012295  -0.000121   0.003866  -0.000006   0.001860  -0.006106
    18  H    0.004416   0.000119  -0.003699  -0.000540   0.000228  -0.001696
    19  H    0.011629   0.000676  -0.003686   0.000690   0.003700  -0.006130
    20  H    0.003857  -0.012157  -0.005174   0.000045  -0.000793  -0.002166
    21  H    0.425884  -0.000044   0.000393  -0.000174  -0.000114  -0.003680
    22  H    0.418417  -0.000402  -0.002730   0.001898   0.000038   0.004793
    23  H    0.428434   0.000033  -0.000286  -0.000248  -0.000009  -0.003893
    24  H   -0.000406   0.218428  -0.023666   0.000880   0.002487  -0.000009
    25  H    0.000959   0.000598   0.283004  -0.033930   0.031360   0.000000
    26  H    0.000146   0.000020  -0.124404   0.448980   0.007581   0.000000
    27  H   -0.000177   0.000063  -0.023062   0.410096  -0.004737   0.000000
    28  H   -0.000059  -0.000029  -0.186327   0.477731   0.008193   0.000000
    29  H    0.000039   0.000293  -0.115263  -0.009687   0.460067   0.000000
    30  H    0.000036  -0.012597  -0.079407   0.006297   0.445350   0.000000
    31  H   -0.000015   0.000624  -0.130087   0.009143   0.433807   0.000000
             13         14         15         16         17         18
     1  C    0.063362   0.037512   0.032609   0.030258   0.024219  -0.094123
     2  C    0.385185   0.033068   0.017764   0.027467  -0.004532  -0.013818
     3  C   -0.011359   0.280945   0.401022  -0.040542  -0.065765  -0.066387
     4  C   -0.044450  -0.030820  -0.054919   0.304027   0.047743   0.032216
     5  C   -0.039606   0.045805  -0.079990  -0.039114   0.354275   0.423320
     6  C   -0.072907  -0.006826  -0.040556  -0.041585  -0.054529   0.040608
     7  C    0.012311   0.000869   0.008536   0.003617   0.012295   0.004416
     8  O   -0.049527  -0.000532   0.000039   0.000957  -0.000121   0.000119
     9  C   -0.015851  -0.016777   0.029082   0.000823   0.003866  -0.003699
    10  C    0.010349  -0.005213  -0.015262  -0.018612  -0.000006  -0.000540
    11  C    0.009364  -0.008124   0.007489   0.036421   0.001860   0.000228
    12  H   -0.000226  -0.000131  -0.000092  -0.000092  -0.006106  -0.001696
    13  H    0.605185  -0.000046   0.002597   0.005061   0.000079   0.000011
    14  H   -0.000046   0.547337  -0.029708  -0.003936  -0.004738  -0.002886
    15  H    0.002597  -0.029708   0.548421   0.004814   0.004578  -0.003344
    16  H    0.005061  -0.003936   0.004814   0.557371   0.002861   0.000054
    17  H    0.000079  -0.004738   0.004578   0.002861   0.545311  -0.027409
    18  H    0.000011  -0.002886  -0.003344   0.000054  -0.027409   0.553005
    19  H    0.004594  -0.000037   0.000087   0.002853   0.002413  -0.000002
    20  H   -0.006035   0.000011  -0.000016  -0.000045  -0.000049  -0.000141
    21  H    0.000048   0.000002  -0.000034   0.000001  -0.000132   0.000061
    22  H   -0.002569  -0.000036  -0.000971  -0.000034  -0.000074  -0.000071
    23  H    0.000015  -0.000019   0.000160   0.000001   0.000058   0.002934
    24  H   -0.006291   0.000004  -0.000003  -0.000219   0.000001  -0.000001
    25  H    0.003356   0.000055   0.001851   0.004900   0.000001   0.000004
    26  H    0.000004  -0.000278   0.000440   0.001825   0.000016   0.000003
    27  H    0.000034  -0.002782   0.000044   0.000027   0.000004   0.000004
    28  H   -0.000007   0.000203  -0.000041  -0.000109   0.000000   0.000000
    29  H   -0.000007   0.000045   0.000005   0.003008   0.000001   0.000000
    30  H    0.000111   0.000004  -0.000006  -0.000442   0.000000   0.000000
    31  H    0.000012  -0.000006   0.000002   0.000200   0.000000   0.000000
             19         20         21         22         23         24
     1  C    0.035973  -0.083948  -0.094764  -0.068867  -0.097333   0.006344
     2  C   -0.087266  -0.035135   0.008011   0.025839  -0.013147  -0.003516
     3  C   -0.004751  -0.024292  -0.013788   0.010172   0.007470  -0.019040
     4  C    0.042559   0.027717  -0.008134   0.010987  -0.004316   0.092317
     5  C   -0.060487   0.043251   0.040234  -0.025242   0.003954   0.001530
     6  C    0.381719   0.402035  -0.000222  -0.015163   0.033581  -0.043728
     7  C    0.011629   0.003857   0.425884   0.418417   0.428434  -0.000406
     8  O    0.000676  -0.012157  -0.000044  -0.000402   0.000033   0.218428
     9  C   -0.003686  -0.005174   0.000393  -0.002730  -0.000286  -0.023666
    10  C    0.000690   0.000045  -0.000174   0.001898  -0.000248   0.000880
    11  C    0.003700  -0.000793  -0.000114   0.000038  -0.000009   0.002487
    12  H   -0.006130  -0.002166  -0.003680   0.004793  -0.003893  -0.000009
    13  H    0.004594  -0.006035   0.000048  -0.002569   0.000015  -0.006291
    14  H   -0.000037   0.000011   0.000002  -0.000036  -0.000019   0.000004
    15  H    0.000087  -0.000016  -0.000034  -0.000971   0.000160  -0.000003
    16  H    0.002853  -0.000045   0.000001  -0.000034   0.000001  -0.000219
    17  H    0.002413  -0.000049  -0.000132  -0.000074   0.000058   0.000001
    18  H   -0.000002  -0.000141   0.000061  -0.000071   0.002934  -0.000001
    19  H    0.526622  -0.029711   0.000037  -0.000107  -0.000120  -0.001041
    20  H   -0.029711   0.565416   0.003154  -0.000021   0.000051   0.006145
    21  H    0.000037   0.003154   0.533145  -0.027921  -0.024780   0.000004
    22  H   -0.000107  -0.000021  -0.027921   0.536890  -0.027669   0.000009
    23  H   -0.000120   0.000051  -0.024780  -0.027669   0.529638   0.000000
    24  H   -0.001041   0.006145   0.000004   0.000009   0.000000   0.401376
    25  H    0.000003  -0.000006   0.000000  -0.000017   0.000000  -0.000099
    26  H    0.000000   0.000000   0.000000   0.000000   0.000000   0.000000
    27  H    0.000000   0.000000   0.000000  -0.000001   0.000000   0.000000
    28  H    0.000000   0.000000   0.000000   0.000000   0.000000   0.000000
    29  H    0.000000   0.000000   0.000000   0.000000   0.000000  -0.000009
    30  H    0.000003   0.000003   0.000000   0.000000   0.000000   0.000610
    31  H    0.000000   0.000000   0.000000   0.000000   0.000000  -0.000010
             25         26         27         28         29         30
     1  C   -0.000075   0.000736  -0.000847  -0.000124  -0.000416   0.000470
     2  C    0.030666   0.005572  -0.003490  -0.003533   0.012948  -0.011860
     3  C   -0.045954  -0.029459   0.034696  -0.014920  -0.011731  -0.001423
     4  C   -0.003354   0.037095  -0.053342   0.076163   0.007965   0.019464
     5  C   -0.000665   0.000570   0.003266   0.000267  -0.000195  -0.001196
     6  C    0.003758  -0.000606  -0.000419   0.000210   0.000971  -0.001382
     7  C    0.000959   0.000146  -0.000177  -0.000059   0.000039   0.000036
     8  O    0.000598   0.000020   0.000063  -0.000029   0.000293  -0.012597
     9  C    0.283004  -0.124404  -0.023062  -0.186327  -0.115263  -0.079407
    10  C   -0.033930   0.448980   0.410096   0.477731  -0.009687   0.006297
    11  C    0.031360   0.007581  -0.004737   0.008193   0.460067   0.445350
    12  H    0.000000   0.000000   0.000000   0.000000   0.000000   0.000000
    13  H    0.003356   0.000004   0.000034  -0.000007  -0.000007   0.000111
    14  H    0.000055  -0.000278  -0.002782   0.000203   0.000045   0.000004
    15  H    0.001851   0.000440   0.000044  -0.000041   0.000005  -0.000006
    16  H    0.004900   0.001825   0.000027  -0.000109   0.003008  -0.000442
    17  H    0.000001   0.000016   0.000004   0.000000   0.000001   0.000000
    18  H    0.000004   0.000003   0.000004   0.000000   0.000000   0.000000
    19  H    0.000003   0.000000   0.000000   0.000000   0.000000   0.000003
    20  H   -0.000006   0.000000   0.000000   0.000000   0.000000   0.000003
    21  H    0.000000   0.000000   0.000000   0.000000   0.000000   0.000000
    22  H   -0.000017   0.000000  -0.000001   0.000000   0.000000   0.000000
    23  H    0.000000   0.000000   0.000000   0.000000   0.000000   0.000000
    24  H   -0.000099   0.000000   0.000000   0.000000  -0.000009   0.000610
    25  H    0.577702   0.004988  -0.003754  -0.003426   0.004931  -0.003092
    26  H    0.004988   0.533648  -0.028755  -0.027853   0.003198  -0.000003
    27  H   -0.003754  -0.028755   0.534482  -0.026545   0.000022  -0.000140
    28  H   -0.003426  -0.027853  -0.026545   0.534970  -0.000263   0.000125
    29  H    0.004931   0.003198   0.000022  -0.000263   0.544579  -0.026570
    30  H   -0.003092  -0.000003  -0.000140   0.000125  -0.026570   0.493888
    31  H   -0.003427  -0.000019   0.000094   0.003027  -0.029523  -0.024635
             31
     1  C   -0.000171
     2  C    0.006424
     3  C   -0.004593
     4  C    0.038100
     5  C    0.000152
     6  C   -0.000178
     7  C   -0.000015
     8  O    0.000624
     9  C   -0.130087
    10  C    0.009143
    11  C    0.433807
    12  H    0.000000
    13  H    0.000012
    14  H   -0.000006
    15  H    0.000002
    16  H    0.000200
    17  H    0.000000
    18  H    0.000000
    19  H    0.000000
    20  H    0.000000
    21  H    0.000000
    22  H    0.000000
    23  H    0.000000
    24  H   -0.000010
    25  H   -0.003427
    26  H   -0.000019
    27  H    0.000094
    28  H    0.003027
    29  H   -0.029523
    30  H   -0.024635
    31  H    0.549516
 Mulliken atomic charges:
              1
     1  C    0.199573
     2  C   -0.254383
     3  C   -0.267890
     4  C    0.013096
     5  C   -0.536890
     6  C   -0.377699
     7  C   -0.683295
     8  O   -0.503162
     9  C    0.297673
    10  C   -0.644984
    11  C   -0.690495
    12  H    0.155439
    13  H    0.147205
    14  H    0.167035
    15  H    0.165405
    16  H    0.158182
    17  H    0.163881
    18  H    0.157133
    19  H    0.179778
    20  H    0.148005
    21  H    0.162813
    22  H    0.162854
    23  H    0.165490
    24  H    0.367906
    25  H    0.149662
    26  H    0.166556
    27  H    0.165219
    28  H    0.162348
    29  H    0.155590
    30  H    0.196394
    31  H    0.151561
 Sum of Mulliken atomic charges =   0.00000
 Mulliken charges with hydrogens summed into heavy atoms:
              1
     1  C    0.355012
     2  C   -0.107178
     3  C    0.064550
     4  C    0.171279
     5  C   -0.215876
     6  C   -0.049916
     7  C   -0.192138
     8  O   -0.135256
     9  C    0.447335
    10  C   -0.150862
    11  C   -0.186950
 Sum of Mulliken charges with hydrogens summed into heavy atoms =   0.00000
 Electronic spatial extent (au):  <R**2>=           2137.9357
 Charge=              0.0000 electrons
 Dipole moment (field-independent basis, Debye):
    X=              2.0105    Y=             -0.2400    Z=              0.5965  Tot=              2.1108
 Quadrupole moment (field-independent basis, Debye-Ang):
   XX=            -73.4715   YY=            -70.4380   ZZ=            -71.6351
   XY=              3.8258   XZ=             -0.3689   YZ=              2.4561
 Traceless Quadrupole moment (field-independent basis, Debye-Ang):
   XX=             -1.6233   YY=              1.4102   ZZ=              0.2131
   XY=              3.8258   XZ=             -0.3689   YZ=              2.4561
 Octapole moment (field-independent basis, Debye-Ang**2):
  XXX=              7.4969  YYY=             24.1102  ZZZ=             -1.2135  XYY=             12.7137
  XXY=              0.8601  XXZ=              0.6003  XZZ=             -0.6323  YZZ=              3.0846
  YYZ=              7.1719  XYZ=              0.1501
 Hexadecapole moment (field-independent basis, Debye-Ang**3):
 XXXX=          -1924.2711 YYYY=           -702.9571 ZZZZ=           -278.2245 XXXY=             -0.7005
 XXXZ=            -17.8183 YYYX=             12.7521 YYYZ=             25.9570 ZZZX=             -4.1418
 ZZZY=              3.0683 XXYY=           -455.6391 XXZZ=           -369.0485 YYZZ=           -175.5855
 XXYZ=              3.7483 YYXZ=              4.5609 ZZXY=              3.0354
 N-N= 6.916538211852D+02 E-N=-2.468775415929D+03  KE= 4.636959651192D+02
 1\1\GINC-COMPUTE-10-2\SP\RmPW1PW91\6-31+G(d,p)\C10H20O1\ASAROTTI.IQUIR
 \19-Sep-2024\0\\# mPW1PW91/6-31+G** nmr scrf=(pcm,solvent=benzene)\\co
 mment\\0,1\C,0,2.437979,-0.119458,-0.348495\C,0,0.212634,1.046516,0.25
 5273\C,0,0.23124,-1.416913,-0.158052\C,0,-0.619523,-0.131327,-0.291621
 \C,0,1.597359,-1.307608,-0.85323\C,0,1.582936,1.159447,-0.431557\C,0,3
 .022002,-0.358574,1.054422\O,0,-0.513449,2.266921,0.073205\C,0,-2.0266
 16,-0.232643,0.382448\C,0,-2.618723,-1.65355,0.385576\C,0,-3.0433,0.72
 3323,-0.268378\H,0,3.290077,0.006629,-1.031216\H,0,0.357635,0.873155,1
 .335967\H,0,-0.312335,-2.264299,-0.587419\H,0,0.371103,-1.65451,0.9065
 33\H,0,-0.773742,0.051641,-1.367578\H,0,1.432284,-1.188946,-1.933869\H
 ,0,2.154829,-2.245258,-0.726023\H,0,1.398732,1.412403,-1.48454\H,0,2.1
 32674,2.0085,0.003599\H,0,3.630694,0.495678,1.375106\H,0,2.246641,-0.5
 12188,1.813127\H,0,3.665948,-1.246245,1.059746\H,0,0.04243,2.985194,0.
 414026\H,0,-1.904678,0.069821,1.434259\H,0,-2.732802,-2.042352,-0.6348
 51\H,0,-2.012553,-2.367192,0.952351\H,0,-3.616462,-1.63746,0.839876\H,
 0,-3.234059,0.426994,-1.309007\H,0,-2.682722,1.752225,-0.267925\H,0,-4
 .002028,0.685558,0.263879\\Version=AM64L-G09RevC.01\State=1-A\HF=-468.
 2788144\RMSD=4.504e-09\Dipole=0.7909733,-0.0944377,0.2346633\Quadrupol
 e=-1.2068856,1.0484348,0.1584508,2.8443841,-0.2743028,1.8260715\PG=C01
  [X(C10H20O1)]\\@


 OPTIMIST - A PESSIMIST WHO LACKS EXPERIENCE
 Job cpu time:  0 days  0 hours  9 minutes 27.5 seconds.
 File lengths (MBytes):  RWF=    121 Int=      0 D2E=      0 Chk=      7 Scr=      1
 Normal termination of Gaussian 09 at Thu Sep 19 08:51:13 2024.
