 Entering Gaussian System, Link 0=g09
 Input=/home/asarotti.iquir/SCF2/02_Mentol15_OptB_NMR_benzene.gjc
 Output=/home/asarotti.iquir/SCF2/02_Mentol15_OptB_NMR_benzene.log
 Initial command:
 /opt/ohpc/pub/apps/software/Gaussian/09/AMD64.SSE4a-enabled/g09/l1.exe /local/asarotti.iquir/Gau-1838335.inp -scrdir=/local/asarotti.iquir/
 Entering Link 1 = /opt/ohpc/pub/apps/software/Gaussian/09/AMD64.SSE4a-enabled/g09/l1.exe PID=   1838336.
  
 Copyright (c) 1988,1990,1992,1993,1995,1998,2003,2009,2011,
            Gaussian, Inc.  All Rights Reserved.
  
 This is part of the Gaussian(R) 09 program.  It is based on
 the Gaussian(R) 03 system (copyright 2003, Gaussian, Inc.),
 the Gaussian(R) 98 system (copyright 1998, Gaussian, Inc.),
 the Gaussian(R) 94 system (copyright 1995, Gaussian, Inc.),
 the Gaussian 92(TM) system (copyright 1992, Gaussian, Inc.),
 the Gaussian 90(TM) system (copyright 1990, Gaussian, Inc.),
 the Gaussian 88(TM) system (copyright 1988, Gaussian, Inc.),
 the Gaussian 86(TM) system (copyright 1986, Carnegie Mellon
 University), and the Gaussian 82(TM) system (copyright 1983,
 Carnegie Mellon University). Gaussian is a federally registered
 trademark of Gaussian, Inc.
  
 This software contains proprietary and confidential information,
 including trade secrets, belonging to Gaussian, Inc.
  
 This software is provided under written license and may be
 used, copied, transmitted, or stored only in accord with that
 written license.
  
 The following legend is applicable only to US Government
 contracts under FAR:
  
                    RESTRICTED RIGHTS LEGEND
  
 Use, reproduction and disclosure by the US Government is
 subject to restrictions as set forth in subparagraphs (a)
 and (c) of the Commercial Computer Software - Restricted
 Rights clause in FAR 52.227-19.
  
 Gaussian, Inc.
 340 Quinnipiac St., Bldg. 40, Wallingford CT 06492
  
  
 ---------------------------------------------------------------
 Warning -- This program may not be used in any manner that
 competes with the business of Gaussian, Inc. or will provide
 assistance to any competitor of Gaussian, Inc.  The licensee
 of this program is prohibited from giving any competitor of
 Gaussian, Inc. access to this program.  By using this program,
 the user acknowledges that Gaussian, Inc. is engaged in the
 business of creating and licensing software in the field of
 computational chemistry and represents and warrants to the
 licensee that it is not a competitor of Gaussian, Inc. and that
 it will not use this program in any manner prohibited above.
 ---------------------------------------------------------------
  

 Cite this work as:
 Gaussian 09, Revision C.01,
 M. J. Frisch, G. W. Trucks, H. B. Schlegel, G. E. Scuseria, 
 M. A. Robb, J. R. Cheeseman, G. Scalmani, V. Barone, B. Mennucci, 
 G. A. Petersson, H. Nakatsuji, M. Caricato, X. Li, H. P. Hratchian, 
 A. F. Izmaylov, J. Bloino, G. Zheng, J. L. Sonnenberg, M. Hada, 
 M. Ehara, K. Toyota, R. Fukuda, J. Hasegawa, M. Ishida, T. Nakajima, 
 Y. Honda, O. Kitao, H. Nakai, T. Vreven, J. A. Montgomery, Jr., 
 J. E. Peralta, F. Ogliaro, M. Bearpark, J. J. Heyd, E. Brothers, 
 K. N. Kudin, V. N. Staroverov, T. Keith, R. Kobayashi, J. Normand, 
 K. Raghavachari, A. Rendell, J. C. Burant, S. S. Iyengar, J. Tomasi, 
 M. Cossi, N. Rega, J. M. Millam, M. Klene, J. E. Knox, J. B. Cross, 
 V. Bakken, C. Adamo, J. Jaramillo, R. Gomperts, R. E. Stratmann, 
 O. Yazyev, A. J. Austin, R. Cammi, C. Pomelli, J. W. Ochterski, 
 R. L. Martin, K. Morokuma, V. G. Zakrzewski, G. A. Voth, 
 P. Salvador, J. J. Dannenberg, S. Dapprich, A. D. Daniels, 
 O. Farkas, J. B. Foresman, J. V. Ortiz, J. Cioslowski, 
 and D. J. Fox, Gaussian, Inc., Wallingford CT, 2010.
 
 ******************************************
 Gaussian 09:  AM64L-G09RevC.01 23-Sep-2011
                19-Sep-2024 
 ******************************************
 %nprocshared=4
 Will use up to    4 processors via shared memory.
 %mem=100mw
 --------------------------------------------------
 # mPW1PW91/6-31+G** nmr scrf=(pcm,solvent=benzene)
 --------------------------------------------------
 1/38=1/1;
 2/12=2,17=6,18=5,40=1/2;
 3/5=1,6=6,7=111,11=2,16=1,25=1,30=1,70=2201,72=12,74=-7/1,2,8,3;
 4//1;
 5/5=2,38=5,53=12/2;
 8/6=1,10=90,11=11/1;
 10/13=100,45=16/2;
 6/7=2,8=2,9=2,10=2,28=1/1;
 99/9=1/99;
 -------
 comment
 -------
 Charge =  0 Multiplicity = 1
 Symbolic Z-Matrix:
 6                    -2.00127  -0.27556   0.20845 
 6                    -0.16381   1.30408  -0.60447 
 6                     0.23145  -0.15662   1.44803 
 6                     0.90551   0.62797   0.29506 
 6                    -0.94861  -1.048     1.02148 
 6                    -1.33209   0.39687  -1.00216 
 6                    -3.16188  -1.17868  -0.22203 
 8                    -0.76615   2.41026   0.0841 
 6                     2.02931  -0.11757  -0.48947 
 6                     1.69021  -1.51204  -1.04285 
 6                     3.31192  -0.20583   0.3578 
 1                    -2.4021    0.5246    0.84528 
 1                     0.33012   1.67236  -1.52013 
 1                    -0.1479    0.57799   2.16962 
 1                     0.97811  -0.75426   1.98618 
 1                     1.4381    1.47138   0.76537 
 1                    -1.41456  -1.47604   1.91976 
 1                    -0.59543  -1.89977   0.42574 
 1                    -2.06212   1.00749  -1.548 
 1                    -0.9756   -0.37077  -1.70106 
 1                    -3.91881  -0.61602  -0.78186 
 1                    -2.80989  -1.99505  -0.86687 
 1                    -3.65599  -1.63199   0.64604 
 1                    -0.05341   3.00622   0.36241 
 1                     2.26479   0.52242  -1.35453 
 1                     1.51166  -2.23257  -0.23656 
 1                     0.81041  -1.50908  -1.69277 
 1                     2.53262  -1.89068  -1.63442 
 1                     3.1632   -0.82854   1.24851 
 1                     3.64093   0.78455   0.69449 
 1                     4.1306   -0.65199  -0.21908 
 
                          Input orientation:                          
 ---------------------------------------------------------------------
 Center     Atomic      Atomic             Coordinates (Angstroms)
 Number     Number       Type             X           Y           Z
 ---------------------------------------------------------------------
      1          6           0       -2.001270   -0.275555    0.208450
      2          6           0       -0.163807    1.304082   -0.604471
      3          6           0        0.231451   -0.156621    1.448034
      4          6           0        0.905510    0.627965    0.295064
      5          6           0       -0.948607   -1.048004    1.021476
      6          6           0       -1.332085    0.396867   -1.002159
      7          6           0       -3.161878   -1.178682   -0.222027
      8          8           0       -0.766153    2.410261    0.084098
      9          6           0        2.029306   -0.117570   -0.489468
     10          6           0        1.690209   -1.512041   -1.042846
     11          6           0        3.311920   -0.205829    0.357796
     12          1           0       -2.402098    0.524598    0.845279
     13          1           0        0.330122    1.672361   -1.520127
     14          1           0       -0.147902    0.577985    2.169615
     15          1           0        0.978108   -0.754263    1.986180
     16          1           0        1.438100    1.471378    0.765367
     17          1           0       -1.414557   -1.476042    1.919759
     18          1           0       -0.595425   -1.899773    0.425736
     19          1           0       -2.062122    1.007493   -1.547999
     20          1           0       -0.975602   -0.370766   -1.701056
     21          1           0       -3.918813   -0.616022   -0.781862
     22          1           0       -2.809888   -1.995045   -0.866874
     23          1           0       -3.655989   -1.631991    0.646036
     24          1           0       -0.053414    3.006218    0.362409
     25          1           0        2.264793    0.522418   -1.354526
     26          1           0        1.511658   -2.232565   -0.236557
     27          1           0        0.810408   -1.509076   -1.692765
     28          1           0        2.532616   -1.890681   -1.634415
     29          1           0        3.163203   -0.828544    1.248508
     30          1           0        3.640931    0.784553    0.694492
     31          1           0        4.130600   -0.651988   -0.219079
 ---------------------------------------------------------------------
                    Distance matrix (angstroms):
                    1          2          3          4          5
     1  C    0.000000
     2  C    2.555849   0.000000
     3  C    2.556513   2.550031   0.000000
     4  C    3.045196   1.552333   1.548958   0.000000
     5  C    1.538112   2.965118   1.539173   2.602748   0.000000
     6  C    1.538029   1.531688   2.958790   2.596734   2.515911
     7  C    1.532305   3.911369   3.917703   4.480514   2.542036
     8  O    2.958815   1.435472   3.073177   2.452660   3.587696
     9  C    4.093604   2.616116   2.643430   1.560202   3.466500
    10  C    4.089212   3.400014   3.188984   2.642987   3.382323
    11  C    5.315746   3.909791   3.268077   2.547539   4.393384
    12  H    1.098389   2.778366   2.786208   3.354652   2.148664
    13  H    3.495389   1.103640   3.487820   2.171809   3.936404
    14  H    2.830136   2.867581   1.097376   2.150841   2.145505
    15  H    3.502310   3.500318   1.097394   2.185337   2.174665
    16  H    3.897589   2.114368   2.138321   1.102807   3.479834
    17  H    2.171170   3.957929   2.161652   3.528341   1.098744
    18  H    2.159096   3.392979   2.183437   2.942676   1.097795
    19  H    2.176012   2.140516   3.948652   3.513938   3.473785
    20  H    2.169625   2.160237   3.379290   2.918997   2.805630
    21  H    2.184859   4.221177   4.733728   5.097192   3.501537
    22  H    2.183307   4.237315   4.241267   4.694088   2.815514
    23  H    2.183917   4.730711   4.234632   5.102730   2.794980
    24  H    3.819408   1.960691   3.356081   2.565182   4.203862
    25  H    4.612911   2.659263   3.528444   2.140079   4.293897
    26  H    4.045810   3.930702   2.964173   2.971981   3.006449
    27  H    3.611333   3.169753   3.468277   2.920180   3.267082
    28  H    5.153727   4.305577   4.219457   3.565661   4.459011
    29  H    5.297103   4.364702   3.014376   2.850904   4.123917
    30  H    5.761467   4.053794   3.616378   2.768861   4.952680
    31  H    6.158272   4.734624   4.269428   3.507681   5.243486
                    6          7          8          9         10
     6  C    0.000000
     7  C    2.537539   0.000000
     8  O    2.356690   4.325936   0.000000
     9  C    3.438960   5.305269   3.812283   0.000000
    10  C    3.574891   4.932304   4.763210   1.538104   0.000000
    11  C    4.876423   6.572115   4.852784   1.539722   2.509569
    12  H    2.138754   2.148853   2.609873   4.672395   4.945694
    13  H    2.158265   4.691223   2.078426   2.674572   3.495433
    14  H    3.390464   4.229643   2.844091   3.506388   4.250502
    15  H    3.948704   4.711241   4.083451   2.763915   3.202548
    16  H    3.457260   5.399774   2.490855   2.109239   3.497711
    17  H    3.471627   2.780072   4.346657   4.417014   4.291608
    18  H    2.802875   2.743401   4.326922   3.301978   2.744302
    19  H    1.097160   2.783348   2.512177   4.373333   4.547881
    20  H    1.097633   2.760445   3.311307   3.249850   2.973600
    21  H    2.786689   1.096792   4.455058   5.976125   5.686131
    22  H    2.814862   1.098259   4.948527   5.204339   4.529363
    23  H    3.497619   1.096890   5.000673   5.992113   5.607900
    24  H    3.210258   5.245713   0.969855   3.849866   5.042780
    25  H    3.616277   5.798711   3.849704   1.101528   2.136894
    26  H    3.948029   4.790910   5.181416   2.192060   1.095964
    27  H    2.949548   4.248681   4.583011   2.206791   1.093825
    28  H    4.535255   5.910080   5.686235   2.169827   1.096801
    29  H    5.174432   6.503208   5.223557   2.193574   2.808413
    30  H    5.268758   7.139503   4.736866   2.193837   3.478218
    31  H    5.617316   7.311474   5.783379   2.184983   2.715473
                   11         12         13         14         15
    11  C    0.000000
    12  H    5.781104   0.000000
    13  H    3.993158   3.791772   0.000000
    14  H    3.983393   2.614979   3.878191   0.000000
    15  H    2.898119   3.789846   4.313071   1.753976   0.000000
    16  H    2.547614   3.955995   2.547841   2.299014   2.579817
    17  H    5.137388   2.476349   4.978872   2.426081   2.500044
    18  H    4.259273   3.052484   4.171710   3.062789   2.494631
    19  H    5.829625   2.465066   2.483074   4.203495   4.983694
    20  H    4.759088   3.052931   2.431464   4.070296   4.190437
    21  H    7.331479   2.499805   4.882129   4.935245   5.626811
    22  H    6.494432   3.073493   4.871988   4.788206   4.901874
    23  H    7.118200   2.502562   5.612494   4.417235   4.903187
    24  H    4.652176   3.450785   2.338849   3.028405   4.223966
    25  H    2.135150   5.159362   2.256711   4.271271   3.800762
    26  H    2.775222   4.908136   4.276918   4.054996   2.722244
    27  H    3.487236   4.571399   3.222114   4.493569   3.759322
    28  H    2.723040   6.027757   4.190383   5.267839   4.100811
    29  H    1.096931   5.741617   4.684679   3.713513   2.307448
    30  H    1.096571   6.050497   4.080955   4.071107   3.335722
    31  H    1.096394   6.722600   4.641008   5.052155   3.848614
                   16         17         18         19         20
    16  H    0.000000
    17  H    4.261169   0.000000
    18  H    3.951611   1.755742   0.000000
    19  H    4.221185   4.314236   3.807759   0.000000
    20  H    3.911866   3.811118   2.646817   1.761690   0.000000
    21  H    5.953795   3.782815   3.761810   2.582648   3.093147
    22  H    5.720638   3.159373   2.565885   3.168331   2.588194
    23  H    5.966145   2.582771   3.080145   3.784320   3.779418
    24  H    2.177779   4.936467   4.936247   3.417524   4.063538
    25  H    2.465338   5.315299   4.149360   4.358317   3.379056
    26  H    3.837767   3.712783   2.233648   4.998976   3.434751
    27  H    3.914015   4.242863   2.572364   3.821715   2.117935
    28  H    4.273214   5.327687   3.745523   5.433093   3.823895
    29  H    2.915312   4.671800   3.993967   6.204475   5.102861
    30  H    2.308510   5.671819   5.022405   6.132151   5.327832
    31  H    3.567544   6.000205   4.930321   6.547497   5.324344
                   21         22         23         24         25
    21  H    0.000000
    22  H    1.771622   0.000000
    23  H    1.772050   1.771043   0.000000
    24  H    5.419528   5.841397   5.879794   0.000000
    25  H    6.313555   5.685755   6.610551   3.806732   0.000000
    26  H    5.692151   4.373726   5.276764   5.500278   3.067083
    27  H    4.898247   3.744971   5.043193   5.035654   2.521232
    28  H    6.631179   5.398366   6.600470   5.886805   2.443995
    29  H    7.370381   6.443088   6.892741   5.083030   3.067250
    30  H    7.828854   7.195630   7.686812   4.323686   2.482125
    31  H    8.069143   7.098860   7.895556   5.588074   2.479860
                   26         27         28         29         30
    26  H    0.000000
    27  H    1.770799   0.000000
    28  H    1.764440   1.764944   0.000000
    29  H    2.627602   3.827513   3.136402   0.000000
    30  H    3.808367   4.355639   3.716053   1.771225   0.000000
    31  H    3.058985   3.732295   2.468013   1.766590   1.771451
                   31
    31  H    0.000000
 Stoichiometry    C10H20O
 Framework group  C1[X(C10H20O)]
 Deg. of freedom    87
 Full point group                 C1      NOp   1
 Largest Abelian subgroup         C1      NOp   1
 Largest concise Abelian subgroup C1      NOp   1
                         Standard orientation:                         
 ---------------------------------------------------------------------
 Center     Atomic      Atomic             Coordinates (Angstroms)
 Number     Number       Type             X           Y           Z
 ---------------------------------------------------------------------
      1          6           0       -2.001270   -0.275555    0.208450
      2          6           0       -0.163807    1.304082   -0.604471
      3          6           0        0.231451   -0.156621    1.448034
      4          6           0        0.905510    0.627965    0.295064
      5          6           0       -0.948607   -1.048004    1.021476
      6          6           0       -1.332085    0.396867   -1.002159
      7          6           0       -3.161878   -1.178682   -0.222027
      8          8           0       -0.766153    2.410261    0.084098
      9          6           0        2.029306   -0.117570   -0.489468
     10          6           0        1.690209   -1.512041   -1.042846
     11          6           0        3.311920   -0.205829    0.357796
     12          1           0       -2.402098    0.524598    0.845279
     13          1           0        0.330122    1.672361   -1.520127
     14          1           0       -0.147902    0.577985    2.169615
     15          1           0        0.978108   -0.754263    1.986180
     16          1           0        1.438100    1.471378    0.765367
     17          1           0       -1.414557   -1.476042    1.919759
     18          1           0       -0.595425   -1.899773    0.425736
     19          1           0       -2.062122    1.007493   -1.547999
     20          1           0       -0.975602   -0.370766   -1.701056
     21          1           0       -3.918813   -0.616022   -0.781862
     22          1           0       -2.809888   -1.995045   -0.866874
     23          1           0       -3.655989   -1.631991    0.646036
     24          1           0       -0.053414    3.006218    0.362409
     25          1           0        2.264793    0.522418   -1.354526
     26          1           0        1.511658   -2.232565   -0.236557
     27          1           0        0.810408   -1.509076   -1.692765
     28          1           0        2.532616   -1.890681   -1.634415
     29          1           0        3.163203   -0.828544    1.248508
     30          1           0        3.640931    0.784553    0.694492
     31          1           0        4.130600   -0.651988   -0.219079
 ---------------------------------------------------------------------
 Rotational constants (GHZ):      1.5405993      0.7758769      0.6601464
 Standard basis: 6-31+G(d,p) (6D, 7F)
 There are   309 symmetry adapted basis functions of A   symmetry.
 Integral buffers will be    131072 words long.
 Raffenetti 2 integral format.
 Two-electron integral symmetry is turned on.
   309 basis functions,   492 primitive gaussians,   309 cartesian basis functions
    44 alpha electrons       44 beta electrons
       nuclear repulsion energy       696.6002470567 Hartrees.
 NAtoms=   31 NActive=   31 NUniq=   31 SFac= 1.00D+00 NAtFMM=   60 NAOKFM=F Big=F
 ------------------------------------------------------------------------------
 Polarizable Continuum Model (PCM)
 =================================
 Model                : PCM.
 Atomic radii         : UFF (Universal Force Field).
 Polarization charges : Total charges.
 Charge compensation  : None.
 Solution method      : Matrix inversion.
 Cavity type          : Scaled VdW (van der Waals Surface) (Alpha=1.100).
 Cavity algorithm     : GePol (No added spheres)
                        Default sphere list used, NSphG=   31.
                        Lebedev-Laikov grids with approx.  5.0 points / Ang**2.
                        Smoothing algorithm: Karplus/York (Gamma=1.0000).
                        Polarization charges: spherical gaussians, with
                                              point-specific exponents (IZeta= 3).
                        Self-potential: point-specific (ISelfS= 7).
                        Self-field    : sphere-specific E.n sum rule (ISelfD= 2).
 Solvent              : Benzene, Eps=   2.270600 Eps(inf)=   2.253301
 ------------------------------------------------------------------------------
 One-electron integrals computed using PRISM.
 NBasis=   309 RedAO= T  NBF=   309
 NBsUse=   309 1.00D-06 NBFU=   309
 Harris functional with IExCor=  908 diagonalized for initial guess.
 ExpMin= 4.38D-02 ExpMax= 5.48D+03 ExpMxC= 8.25D+02 IAcc=2 IRadAn=         4 AccDes= 0.00D+00
 HarFok:  IExCor=  908 AccDes= 0.00D+00 IRadAn=         4 IDoV= 1
 ScaDFX=  1.000000  1.000000  1.000000  1.000000
 FoFCou: FMM=F IPFlag=           0 FMFlag=      100000 FMFlg1=           0
         NFxFlg=           0 DoJE=T BraDBF=F KetDBF=T FulRan=T
         Omega=  0.000000  0.000000  1.000000  0.000000  0.000000 ICntrl=     500 IOpCl=  0
         NMat0=    1 NMatS0=    1 NMatT0=    0 NMatD0=    1 NMtDS0=    0 NMtDT0=    0
         I1Cent=           4 NGrid=           0.
 Petite list used in FoFCou.
 Initial guess orbital symmetries:
       Occupied  (A) (A) (A) (A) (A) (A) (A) (A) (A) (A) (A) (A)
                 (A) (A) (A) (A) (A) (A) (A) (A) (A) (A) (A) (A)
                 (A) (A) (A) (A) (A) (A) (A) (A) (A) (A) (A) (A)
                 (A) (A) (A) (A) (A) (A) (A) (A)
       Virtual   (A) (A) (A) (A) (A) (A) (A) (A) (A) (A) (A) (A)
                 (A) (A) (A) (A) (A) (A) (A) (A) (A) (A) (A) (A)
                 (A) (A) (A) (A) (A) (A) (A) (A) (A) (A) (A) (A)
                 (A) (A) (A) (A) (A) (A) (A) (A) (A) (A) (A) (A)
                 (A) (A) (A) (A) (A) (A) (A) (A) (A) (A) (A) (A)
                 (A) (A) (A) (A) (A) (A) (A) (A) (A) (A) (A) (A)
                 (A) (A) (A) (A) (A) (A) (A) (A) (A) (A) (A) (A)
                 (A) (A) (A) (A) (A) (A) (A) (A) (A) (A) (A) (A)
                 (A) (A) (A) (A) (A) (A) (A) (A) (A) (A) (A) (A)
                 (A) (A) (A) (A) (A) (A) (A) (A) (A) (A) (A) (A)
                 (A) (A) (A) (A) (A) (A) (A) (A) (A) (A) (A) (A)
                 (A) (A) (A) (A) (A) (A) (A) (A) (A) (A) (A) (A)
                 (A) (A) (A) (A) (A) (A) (A) (A) (A) (A) (A) (A)
                 (A) (A) (A) (A) (A) (A) (A) (A) (A) (A) (A) (A)
                 (A) (A) (A) (A) (A) (A) (A) (A) (A) (A) (A) (A)
                 (A) (A) (A) (A) (A) (A) (A) (A) (A) (A) (A) (A)
                 (A) (A) (A) (A) (A) (A) (A) (A) (A) (A) (A) (A)
                 (A) (A) (A) (A) (A) (A) (A) (A) (A) (A) (A) (A)
                 (A) (A) (A) (A) (A) (A) (A) (A) (A) (A) (A) (A)
                 (A) (A) (A) (A) (A) (A) (A) (A) (A) (A) (A) (A)
                 (A) (A) (A) (A) (A) (A) (A) (A) (A) (A) (A) (A)
                 (A) (A) (A) (A) (A) (A) (A) (A) (A) (A) (A) (A)
                 (A)
 The electronic state of the initial guess is 1-A.
 Requested convergence on RMS density matrix=1.00D-08 within 128 cycles.
 Requested convergence on MAX density matrix=1.00D-06.
 Requested convergence on             energy=1.00D-06.
 No special actions if energy rises.
 Error on total polarization charges =  0.00927
 SCF Done:  E(RmPW1PW91) =  -468.277446945     A.U. after   12 cycles
             Convg  =    0.8147D-08             -V/T =  2.0099
 Range of M.O.s used for correlation:     1   309
 NBasis=   309 NAE=    44 NBE=    44 NFC=     0 NFV=     0
 NROrb=    309 NOA=    44 NOB=    44 NVA=   265 NVB=   265

 **** Warning!!: The largest alpha MO coefficient is  0.82835076D+02

 NEqPCM:  Using equilibrium solvation (IEInf=0, Eps=   2.2706, EpsInf=   2.2533)
          Differentiating once with respect to magnetic field using GIAOs.
          Electric field/nuclear overlap derivatives assumed to be zero.
 FoFCou: FMM=F IPFlag=           0 FMFlag=    10101102 FMFlg1=           0
         NFxFlg=    40000000 DoJE=F BraDBF=F KetDBF=T FulRan=T
         Omega=  0.000000  0.000000  1.000000  0.000000  0.000000 ICntrl=    6100 IOpCl=  0
         NMat0=    1 NMatS0=    1 NMatT0=    0 NMatD0=    1 NMtDS0=    0 NMtDT0=    0
         I1Cent=           7 NGrid=        1932.
 Symmetry not used in FoFCou.
          There are     3 degrees of freedom in the 1st order CPHF.  IDoFFX=0.
      3 vectors produced by pass  0 Test12= 3.89D-13 3.33D-08 XBig12= 3.32D+01 8.72D-01.
 AX will form     3 AO Fock derivatives at one time.
      3 vectors produced by pass  1 Test12= 3.89D-13 3.33D-08 XBig12= 6.88D-02 6.31D-02.
      3 vectors produced by pass  2 Test12= 3.89D-13 3.33D-08 XBig12= 2.31D-04 4.78D-03.
      3 vectors produced by pass  3 Test12= 3.89D-13 3.33D-08 XBig12= 8.94D-07 2.21D-04.
      3 vectors produced by pass  4 Test12= 3.89D-13 3.33D-08 XBig12= 2.14D-09 6.80D-06.
      3 vectors produced by pass  5 Test12= 3.89D-13 3.33D-08 XBig12= 5.50D-12 4.26D-07.
 Inverted reduced A of dimension    18 with in-core refinement.
 Calculating GIAO nuclear magnetic shielding tensors.
 SCF GIAO Magnetic shielding tensor (ppm):
      1  C    Isotropic =   168.0177   Anisotropy =    12.8423
   XX=   169.1690   YX=    -1.0129   ZX=     4.4305
   XY=     0.7600   YY=   167.1957   ZY=    -0.7817
   XZ=    11.6721   YZ=     3.3729   ZZ=   167.6885
   Eigenvalues:   160.1876   167.2863   176.5793
      2  C    Isotropic =   119.6640   Anisotropy =    43.0397
   XX=   115.4295   YX=   -22.7148   ZX=    -7.8024
   XY=   -20.8465   YY=   125.0010   ZY=    13.1046
   XZ=    -6.3525   YZ=     9.3458   ZZ=   118.5616
   Eigenvalues:    97.7785   112.8564   148.3571
      3  C    Isotropic =   173.4899   Anisotropy =    20.7275
   XX=   178.5318   YX=     9.7394   ZX=     3.6832
   XY=    11.8674   YY=   173.6385   ZY=     0.6493
   XZ=    -1.5602   YZ=     2.0320   ZZ=   168.2994
   Eigenvalues:   164.9620   168.1995   187.3082
      4  C    Isotropic =   145.6323   Anisotropy =    29.3733
   XX=   149.3878   YX=   -15.1932   ZX=     5.6747
   XY=   -12.9036   YY=   150.7677   ZY=    16.0688
   XZ=     9.4680   YZ=    11.3909   ZZ=   136.7416
   Eigenvalues:   121.1663   150.5163   165.2145
      5  C    Isotropic =   162.0867   Anisotropy =    18.5420
   XX=   170.1081   YX=     1.0066   ZX=     7.4473
   XY=    -6.2306   YY=   157.7142   ZY=    -0.5557
   XZ=     7.8454   YZ=    -2.6479   ZZ=   158.4378
   Eigenvalues:   154.6249   157.1871   174.4481
      6  C    Isotropic =   156.9194   Anisotropy =    20.6294
   XX=   158.6436   YX=    12.5573   ZX=    -2.5884
   XY=     6.5794   YY=   161.0390   ZY=     1.4437
   XZ=   -10.3947   YZ=    -2.5260   ZZ=   151.0757
   Eigenvalues:   145.6641   154.4218   170.6724
      7  C    Isotropic =   172.7761   Anisotropy =    38.3991
   XX=   185.0785   YX=    14.4830   ZX=     6.6547
   XY=    19.5521   YY=   170.9299   ZY=     2.0384
   XZ=    10.3416   YZ=     2.5559   ZZ=   162.3201
   Eigenvalues:   157.2122   162.7407   198.3755
      8  O    Isotropic =   263.7984   Anisotropy =    94.2870
   XX=   273.2809   YX=    20.7486   ZX=    51.4512
   XY=    -5.8369   YY=   290.5292   ZY=    36.8156
   XZ=    40.1809   YZ=    41.9524   ZZ=   227.5851
   Eigenvalues:   189.9385   274.8003   326.6563
      9  C    Isotropic =   160.1658   Anisotropy =    19.1156
   XX=   166.1324   YX=    -2.9413   ZX=    -8.6959
   XY=    -6.7303   YY=   154.8796   ZY=     2.0272
   XZ=    -7.7325   YZ=     0.4719   ZZ=   159.4855
   Eigenvalues:   152.1750   155.4130   172.9095
     10  C    Isotropic =   174.6084   Anisotropy =    20.9745
   XX=   174.3750   YX=     2.0055   ZX=     1.1007
   XY=     8.7041   YY=   181.3402   ZY=    11.0916
   XZ=     2.8161   YZ=     8.0042   ZZ=   168.1100
   Eigenvalues:   163.0531   172.1807   188.5914
     11  C    Isotropic =   170.9707   Anisotropy =    39.8451
   XX=   186.4829   YX=     1.4257   ZX=    17.1995
   XY=    -4.6696   YY=   163.7948   ZY=    10.7774
   XZ=    20.8399   YZ=    11.8416   ZZ=   162.6343
   Eigenvalues:   145.6939   169.6841   197.5340
     12  H    Isotropic =    29.5008   Anisotropy =     6.4601
   XX=    30.4762   YX=    -0.9900   ZX=    -2.7147
   XY=    -0.6013   YY=    30.4332   ZY=     3.0106
   XZ=    -2.6436   YZ=     2.9008   ZZ=    27.5929
   Eigenvalues:    25.0309    29.6639    33.8075
     13  H    Isotropic =    27.7117   Anisotropy =     4.9670
   XX=    26.6280   YX=    -0.1130   ZX=    -2.6391
   XY=    -0.8913   YY=    27.8565   ZY=    -0.8399
   XZ=    -3.0320   YZ=    -2.4066   ZZ=    28.6507
   Eigenvalues:    24.1216    27.9906    31.0230
     14  H    Isotropic =    29.7028   Anisotropy =     8.9513
   XX=    26.6288   YX=     1.0570   ZX=    -0.9270
   XY=     0.2581   YY=    28.8315   ZY=     3.4311
   XZ=    -1.8950   YZ=     3.7706   ZZ=    33.6480
   Eigenvalues:    25.4669    27.9712    35.6703
     15  H    Isotropic =    29.9486   Anisotropy =     8.1721
   XX=    32.5520   YX=    -1.3731   ZX=     2.5257
   XY=    -1.0714   YY=    26.3440   ZY=    -2.8674
   XZ=     2.5793   YZ=    -3.5159   ZZ=    30.9499
   Eigenvalues:    24.7104    29.7388    35.3967
     16  H    Isotropic =    30.5042   Anisotropy =     5.6490
   XX=    31.9374   YX=     0.7167   ZX=     0.0794
   XY=     1.3662   YY=    32.9076   ZY=     1.9267
   XZ=     0.5582   YZ=     2.9986   ZZ=    26.6677
   Eigenvalues:    25.8126    31.4299    34.2702
     17  H    Isotropic =    30.2055   Anisotropy =     9.1149
   XX=    29.9318   YX=     2.6193   ZX=    -1.5808
   XY=     3.1236   YY=    28.1666   ZY=    -4.2709
   XZ=    -1.1546   YZ=    -4.2189   ZZ=    32.5179
   Eigenvalues:    24.8801    29.4542    36.2821
     18  H    Isotropic =    30.4612   Anisotropy =     4.9921
   XX=    32.0407   YX=    -0.4468   ZX=    -0.8776
   XY=    -1.0994   YY=    32.9164   ZY=     1.7731
   XZ=    -1.0210   YZ=     1.2010   ZZ=    26.4265
   Eigenvalues:    26.0036    31.5908    33.7892
     19  H    Isotropic =    29.7668   Anisotropy =     8.2917
   XX=    29.9634   YX=    -1.1574   ZX=     3.4139
   XY=    -0.5030   YY=    29.3872   ZY=    -3.7365
   XZ=     3.7342   YZ=    -3.4059   ZZ=    29.9498
   Eigenvalues:    25.1570    28.8487    35.2946
     20  H    Isotropic =    30.3198   Anisotropy =     5.1280
   XX=    30.5594   YX=    -0.3298   ZX=    -0.4101
   XY=    -0.3633   YY=    28.4301   ZY=     2.8653
   XZ=    -0.5877   YZ=     2.9954   ZZ=    31.9700
   Eigenvalues:    26.7758    30.4452    33.7385
     21  H    Isotropic =    30.6195   Anisotropy =    10.8331
   XX=    35.8435   YX=    -1.3950   ZX=     4.2987
   XY=    -0.2536   YY=    27.8747   ZY=    -0.7321
   XZ=     4.0824   YZ=    -1.7374   ZZ=    28.1401
   Eigenvalues:    25.9446    28.0722    37.8415
     22  H    Isotropic =    31.0536   Anisotropy =     8.0182
   XX=    30.0158   YX=     1.8373   ZX=     0.9003
   XY=     1.2048   YY=    33.2492   ZY=     4.1669
   XZ=     0.4010   YZ=     3.9947   ZZ=    29.8957
   Eigenvalues:    27.1244    29.6372    36.3991
     23  H    Isotropic =    30.5903   Anisotropy =    10.7066
   XX=    33.1000   YX=     4.2895   ZX=    -3.5669
   XY=     4.2429   YY=    28.7756   ZY=    -3.0716
   XZ=    -2.6357   YZ=    -1.9601   ZZ=    29.8952
   Eigenvalues:    26.0342    28.0086    37.7280
     24  H    Isotropic =    31.1063   Anisotropy =    16.8127
   XX=    31.8730   YX=     5.0754   ZX=     1.8039
   XY=     5.4585   YY=    36.9559   ZY=     5.0823
   XZ=     3.8414   YZ=     5.6499   ZZ=    24.4898
   Eigenvalues:    22.4081    28.5960    42.3147
     25  H    Isotropic =    29.8066   Anisotropy =     6.9491
   XX=    29.4261   YX=     1.0495   ZX=    -2.3360
   XY=     0.5188   YY=    29.2099   ZY=    -3.2086
   XZ=    -1.9418   YZ=    -3.6078   ZZ=    30.7838
   Eigenvalues:    26.2917    28.6888    34.4394
     26  H    Isotropic =    30.7463   Anisotropy =     5.9517
   XX=    29.3349   YX=     0.3269   ZX=    -1.8905
   XY=     0.2228   YY=    34.1613   ZY=    -2.1408
   XZ=    -1.7371   YZ=    -1.0726   ZZ=    28.7428
   Eigenvalues:    27.0381    30.4868    34.7141
     27  H    Isotropic =    30.3518   Anisotropy =     7.4452
   XX=    32.7896   YX=    -1.1073   ZX=     2.8933
   XY=     0.4905   YY=    28.2510   ZY=     4.1322
   XZ=     3.2321   YZ=     3.2936   ZZ=    30.0148
   Eigenvalues:    24.7049    31.0353    35.3152
     28  H    Isotropic =    30.7330   Anisotropy =    10.6474
   XX=    31.5040   YX=    -2.3639   ZX=    -3.5416
   XY=    -3.0553   YY=    30.1593   ZY=     4.3842
   XZ=    -3.5867   YZ=     4.2991   ZZ=    30.5358
   Eigenvalues:    25.9242    28.4436    37.8313
     29  H    Isotropic =    30.4200   Anisotropy =     6.7003
   XX=    31.1990   YX=    -1.5336   ZX=     2.2409
   XY=    -0.6179   YY=    27.9494   ZY=    -2.8293
   XZ=     1.4210   YZ=    -3.1343   ZZ=    32.1115
   Eigenvalues:    26.3915    29.9815    34.8868
     30  H    Isotropic =    30.8033   Anisotropy =    10.2706
   XX=    32.7035   YX=     4.3449   ZX=     2.8397
   XY=     3.3069   YY=    32.0643   ZY=     1.9754
   XZ=     2.4390   YZ=     3.4482   ZZ=    27.6419
   Eigenvalues:    26.1991    28.5603    37.6503
     31  H    Isotropic =    30.6186   Anisotropy =    10.4752
   XX=    36.5660   YX=    -2.4730   ZX=    -2.1714
   XY=    -2.3883   YY=    27.5942   ZY=     2.0943
   XZ=    -1.1910   YZ=     1.1354   ZZ=    27.6956
   Eigenvalues:    25.9879    28.2659    37.6021
 End of Minotr Frequency-dependent properties file   721 does not exist.
 End of Minotr Frequency-dependent properties file   722 does not exist.

 **********************************************************************

            Population analysis using the SCF density.

 **********************************************************************

 Orbital symmetries:
       Occupied  (A) (A) (A) (A) (A) (A) (A) (A) (A) (A) (A) (A)
                 (A) (A) (A) (A) (A) (A) (A) (A) (A) (A) (A) (A)
                 (A) (A) (A) (A) (A) (A) (A) (A) (A) (A) (A) (A)
                 (A) (A) (A) (A) (A) (A) (A) (A)
       Virtual   (A) (A) (A) (A) (A) (A) (A) (A) (A) (A) (A) (A)
                 (A) (A) (A) (A) (A) (A) (A) (A) (A) (A) (A) (A)
                 (A) (A) (A) (A) (A) (A) (A) (A) (A) (A) (A) (A)
                 (A) (A) (A) (A) (A) (A) (A) (A) (A) (A) (A) (A)
                 (A) (A) (A) (A) (A) (A) (A) (A) (A) (A) (A) (A)
                 (A) (A) (A) (A) (A) (A) (A) (A) (A) (A) (A) (A)
                 (A) (A) (A) (A) (A) (A) (A) (A) (A) (A) (A) (A)
                 (A) (A) (A) (A) (A) (A) (A) (A) (A) (A) (A) (A)
                 (A) (A) (A) (A) (A) (A) (A) (A) (A) (A) (A) (A)
                 (A) (A) (A) (A) (A) (A) (A) (A) (A) (A) (A) (A)
                 (A) (A) (A) (A) (A) (A) (A) (A) (A) (A) (A) (A)
                 (A) (A) (A) (A) (A) (A) (A) (A) (A) (A) (A) (A)
                 (A) (A) (A) (A) (A) (A) (A) (A) (A) (A) (A) (A)
                 (A) (A) (A) (A) (A) (A) (A) (A) (A) (A) (A) (A)
                 (A) (A) (A) (A) (A) (A) (A) (A) (A) (A) (A) (A)
                 (A) (A) (A) (A) (A) (A) (A) (A) (A) (A) (A) (A)
                 (A) (A) (A) (A) (A) (A) (A) (A) (A) (A) (A) (A)
                 (A) (A) (A) (A) (A) (A) (A) (A) (A) (A) (A) (A)
                 (A) (A) (A) (A) (A) (A) (A) (A) (A) (A) (A) (A)
                 (A) (A) (A) (A) (A) (A) (A) (A) (A) (A) (A) (A)
                 (A) (A) (A) (A) (A) (A) (A) (A) (A) (A) (A) (A)
                 (A) (A) (A) (A) (A) (A) (A) (A) (A) (A) (A) (A)
                 (A)
 The electronic state is 1-A.
 Alpha  occ. eigenvalues --  -19.24412 -10.29521 -10.25603 -10.25110 -10.24278
 Alpha  occ. eigenvalues --  -10.23892 -10.23652 -10.23522 -10.23505 -10.23459
 Alpha  occ. eigenvalues --  -10.22998  -1.04951  -0.85661  -0.82070  -0.76486
 Alpha  occ. eigenvalues --   -0.75521  -0.70646  -0.69464  -0.63007  -0.61845
 Alpha  occ. eigenvalues --   -0.58049  -0.55581  -0.51188  -0.49123  -0.47894
 Alpha  occ. eigenvalues --   -0.45706  -0.45004  -0.43897  -0.41753  -0.41574
 Alpha  occ. eigenvalues --   -0.39828  -0.39649  -0.39180  -0.38385  -0.37234
 Alpha  occ. eigenvalues --   -0.36956  -0.36415  -0.34420  -0.33437  -0.32995
 Alpha  occ. eigenvalues --   -0.31294  -0.31013  -0.30203  -0.27745
 Alpha virt. eigenvalues --    0.00403   0.01854   0.02092   0.02391   0.03733
 Alpha virt. eigenvalues --    0.04073   0.04541   0.04955   0.05490   0.06639
 Alpha virt. eigenvalues --    0.07289   0.07668   0.08276   0.08569   0.09110
 Alpha virt. eigenvalues --    0.09405   0.09834   0.10740   0.11556   0.11656
 Alpha virt. eigenvalues --    0.12457   0.13082   0.13452   0.14093   0.14681
 Alpha virt. eigenvalues --    0.15081   0.15763   0.15882   0.16539   0.17134
 Alpha virt. eigenvalues --    0.17838   0.18529   0.18829   0.19202   0.19550
 Alpha virt. eigenvalues --    0.19859   0.20930   0.21314   0.21608   0.22216
 Alpha virt. eigenvalues --    0.23083   0.23403   0.23757   0.24085   0.24521
 Alpha virt. eigenvalues --    0.25211   0.25817   0.26298   0.26847   0.27246
 Alpha virt. eigenvalues --    0.27857   0.28116   0.29600   0.29934   0.30552
 Alpha virt. eigenvalues --    0.30963   0.31384   0.31865   0.32224   0.32936
 Alpha virt. eigenvalues --    0.34266   0.35221   0.36002   0.37236   0.37319
 Alpha virt. eigenvalues --    0.38783   0.39451   0.39889   0.40844   0.41785
 Alpha virt. eigenvalues --    0.42412   0.45302   0.46183   0.49011   0.51338
 Alpha virt. eigenvalues --    0.63117   0.64170   0.66302   0.66642   0.67488
 Alpha virt. eigenvalues --    0.68347   0.69295   0.70909   0.71477   0.72125
 Alpha virt. eigenvalues --    0.73574   0.74678   0.75032   0.75611   0.78190
 Alpha virt. eigenvalues --    0.78900   0.79101   0.80639   0.82802   0.84296
 Alpha virt. eigenvalues --    0.85723   0.88488   0.88787   0.90726   0.92494
 Alpha virt. eigenvalues --    0.93635   0.96393   0.96984   0.99551   1.00749
 Alpha virt. eigenvalues --    1.01042   1.02260   1.02877   1.03707   1.04060
 Alpha virt. eigenvalues --    1.05523   1.07609   1.09540   1.10628   1.10985
 Alpha virt. eigenvalues --    1.12971   1.14288   1.14903   1.15545   1.16117
 Alpha virt. eigenvalues --    1.18103   1.18848   1.19460   1.20590   1.23040
 Alpha virt. eigenvalues --    1.24642   1.25041   1.29203   1.30573   1.32200
 Alpha virt. eigenvalues --    1.36133   1.38000   1.41311   1.42379   1.47007
 Alpha virt. eigenvalues --    1.48646   1.50529   1.51921   1.54839   1.56786
 Alpha virt. eigenvalues --    1.57777   1.60328   1.62737   1.63356   1.65774
 Alpha virt. eigenvalues --    1.71493   1.73720   1.74835   1.78233   1.79507
 Alpha virt. eigenvalues --    1.81811   1.83150   1.85215   1.85846   1.88567
 Alpha virt. eigenvalues --    1.89855   1.90887   1.92785   1.94380   1.95825
 Alpha virt. eigenvalues --    1.96789   1.98051   2.01212   2.03075   2.03499
 Alpha virt. eigenvalues --    2.05219   2.06406   2.06741   2.07486   2.08150
 Alpha virt. eigenvalues --    2.08980   2.11019   2.13265   2.13723   2.14762
 Alpha virt. eigenvalues --    2.15257   2.16553   2.18237   2.19424   2.20088
 Alpha virt. eigenvalues --    2.21550   2.23540   2.25219   2.25691   2.28352
 Alpha virt. eigenvalues --    2.33215   2.33958   2.35498   2.37002   2.38389
 Alpha virt. eigenvalues --    2.39372   2.41036   2.41838   2.43215   2.44980
 Alpha virt. eigenvalues --    2.49125   2.50935   2.52375   2.54859   2.56737
 Alpha virt. eigenvalues --    2.58978   2.59771   2.62146   2.64531   2.65521
 Alpha virt. eigenvalues --    2.67281   2.68331   2.69994   2.70662   2.71800
 Alpha virt. eigenvalues --    2.72445   2.76071   2.76295   2.78117   2.79100
 Alpha virt. eigenvalues --    2.80027   2.81082   2.82198   2.83885   2.84380
 Alpha virt. eigenvalues --    2.86521   2.89221   2.90022   2.91353   2.91535
 Alpha virt. eigenvalues --    2.93250   2.93730   2.95575   2.97748   2.99185
 Alpha virt. eigenvalues --    2.99579   3.02789   3.06758   3.16013   3.28795
 Alpha virt. eigenvalues --    3.29698   3.30923   3.36447   3.38492   3.39842
 Alpha virt. eigenvalues --    3.41141   3.43310   3.48217   3.49227   3.50674
 Alpha virt. eigenvalues --    3.51391   3.53388   3.53557   3.55580   3.56412
 Alpha virt. eigenvalues --    3.57718   3.59464   3.60365   3.64297   4.37376
 Alpha virt. eigenvalues --    4.41466   4.42903   4.55855   4.58490   4.62449
 Alpha virt. eigenvalues --    4.64053   4.75891   4.83547   4.90964   4.96116
          Condensed to atoms (all electrons):
              1          2          3          4          5          6
     1  C    6.798538   0.351583   0.282716  -0.238267  -0.282442  -0.357198
     2  C    0.351583   8.311515   0.258010  -1.997433  -0.125766  -0.487434
     3  C    0.282716   0.258010   6.039672  -0.015931   0.103833  -0.329268
     4  C   -0.238267  -1.997433  -0.015931   8.621511  -0.462175  -0.122203
     5  C   -0.282442  -0.125766   0.103833  -0.462175   6.236253  -0.074826
     6  C   -0.357198  -0.487434  -0.329268  -0.122203  -0.074826   6.577189
     7  C   -0.416361  -0.186858  -0.068060   0.057967   0.133337   0.096318
     8  O    0.038557   0.047713  -0.033001   0.207697  -0.048934  -0.196731
     9  C   -0.187640  -0.131220  -0.454602  -0.506081   0.176339   0.394877
    10  C    0.045739   0.153996   0.031744  -0.032210  -0.144627  -0.076756
    11  C   -0.000457  -0.160044   0.040633   0.209490   0.021391  -0.012777
    12  H    0.296085  -0.072071  -0.035484   0.032087   0.020791   0.001250
    13  H    0.004251   0.120707  -0.000825   0.083824  -0.020762   0.058213
    14  H   -0.009780  -0.050942   0.389051  -0.001973  -0.019124   0.005033
    15  H    0.032258   0.032544   0.424022  -0.078185  -0.065082  -0.014569
    16  H   -0.019543   0.017093   0.001987   0.221716   0.067258   0.014531
    17  H   -0.016636   0.005684  -0.009833   0.038984   0.289662   0.037689
    18  H   -0.112197  -0.062565  -0.095199   0.063871   0.480617   0.027982
    19  H   -0.027258  -0.015313   0.001684   0.053191   0.026127   0.314765
    20  H   -0.080163  -0.114042  -0.015003   0.077944   0.010063   0.412296
    21  H   -0.128288  -0.003663  -0.006752   0.003892   0.023960   0.009714
    22  H   -0.103231  -0.008719  -0.004045   0.004978   0.007708   0.000645
    23  H   -0.128529  -0.011086  -0.000543   0.003429   0.001898   0.033172
    24  H   -0.021458   0.138792  -0.023332  -0.144963   0.011432   0.045208
    25  H    0.004953  -0.017135   0.013425  -0.031256  -0.021461   0.012141
    26  H    0.005940  -0.004883   0.023602  -0.012801  -0.028146   0.004012
    27  H    0.003481   0.044734  -0.029643  -0.012830   0.012124  -0.032504
    28  H   -0.000235   0.006709   0.000641   0.027856  -0.000161  -0.001898
    29  H    0.001472   0.003658  -0.003554   0.008976  -0.010393   0.000530
    30  H    0.000265  -0.009368   0.021050  -0.004053   0.002473   0.001317
    31  H   -0.000479  -0.004725   0.000540   0.029962   0.000102  -0.000213
              7          8          9         10         11         12
     1  C   -0.416361   0.038557  -0.187640   0.045739  -0.000457   0.296085
     2  C   -0.186858   0.047713  -0.131220   0.153996  -0.160044  -0.072071
     3  C   -0.068060  -0.033001  -0.454602   0.031744   0.040633  -0.035484
     4  C    0.057967   0.207697  -0.506081  -0.032210   0.209490   0.032087
     5  C    0.133337  -0.048934   0.176339  -0.144627   0.021391   0.020791
     6  C    0.096318  -0.196731   0.394877  -0.076756  -0.012777   0.001250
     7  C    5.667699   0.016411   0.017583  -0.008264   0.003731   0.028209
     8  O    0.016411   8.322802  -0.002326  -0.000121  -0.001868   0.007590
     9  C    0.017583  -0.002326   6.986740  -0.091853  -0.172072   0.000672
    10  C   -0.008264  -0.000121  -0.091853   5.504028  -0.080767  -0.002579
    11  C    0.003731  -0.001868  -0.172072  -0.080767   5.492682   0.000630
    12  H    0.028209   0.007590   0.000672  -0.002579   0.000630   0.545935
    13  H    0.004204  -0.037040   0.023152   0.007457   0.006585  -0.000052
    14  H    0.002727   0.003309   0.009780  -0.005598   0.003954   0.003047
    15  H   -0.002587  -0.000824   0.005242  -0.004946  -0.006920  -0.000016
    16  H    0.001198  -0.021067  -0.012213  -0.005951  -0.001475  -0.000072
    17  H   -0.019847   0.000290  -0.002342   0.005577  -0.001690  -0.004719
    18  H    0.007981   0.000584   0.009050  -0.016132   0.004397   0.005136
    19  H   -0.009576  -0.004481  -0.008502   0.000010   0.000539  -0.003686
    20  H    0.019650   0.010557   0.000982  -0.018311   0.002664   0.005000
    21  H    0.460550  -0.000121   0.000239  -0.000133   0.000019  -0.003619
    22  H    0.450889   0.000096   0.000559  -0.000479   0.000141   0.004641
    23  H    0.460317   0.000115  -0.000111   0.000062  -0.000036  -0.003645
    24  H   -0.002149   0.208834   0.025408  -0.001631  -0.001186  -0.000233
    25  H   -0.000580   0.000309   0.288772   0.018210  -0.002575  -0.000002
    26  H   -0.000009   0.000025  -0.082388   0.450112  -0.006874  -0.000003
    27  H   -0.000478  -0.000231  -0.049496   0.421550   0.000267  -0.000006
    28  H   -0.000515   0.000013  -0.117952   0.442567   0.001459   0.000000
    29  H   -0.000043  -0.000033  -0.102812   0.003921   0.447590   0.000000
    30  H    0.000103   0.000019  -0.088285   0.003015   0.431511   0.000000
    31  H   -0.000038  -0.000004  -0.114660   0.003860   0.444642   0.000000
             13         14         15         16         17         18
     1  C    0.004251  -0.009780   0.032258  -0.019543  -0.016636  -0.112197
     2  C    0.120707  -0.050942   0.032544   0.017093   0.005684  -0.062565
     3  C   -0.000825   0.389051   0.424022   0.001987  -0.009833  -0.095199
     4  C    0.083824  -0.001973  -0.078185   0.221716   0.038984   0.063871
     5  C   -0.020762  -0.019124  -0.065082   0.067258   0.289662   0.480617
     6  C    0.058213   0.005033  -0.014569   0.014531   0.037689   0.027982
     7  C    0.004204   0.002727  -0.002587   0.001198  -0.019847   0.007981
     8  O   -0.037040   0.003309  -0.000824  -0.021067   0.000290   0.000584
     9  C    0.023152   0.009780   0.005242  -0.012213  -0.002342   0.009050
    10  C    0.007457  -0.005598  -0.004946  -0.005951   0.005577  -0.016132
    11  C    0.006585   0.003954  -0.006920  -0.001475  -0.001690   0.004397
    12  H   -0.000052   0.003047  -0.000016  -0.000072  -0.004719   0.005136
    13  H    0.635658  -0.000131  -0.000122  -0.004597   0.000012  -0.000040
    14  H   -0.000131   0.536498  -0.029161  -0.007095  -0.005350   0.004701
    15  H   -0.000122  -0.029161   0.560409  -0.000860  -0.002300  -0.004024
    16  H   -0.004597  -0.007095  -0.000860   0.613749  -0.000145  -0.000135
    17  H    0.000012  -0.005350  -0.002300  -0.000145   0.559123  -0.031220
    18  H   -0.000040   0.004701  -0.004024  -0.000135  -0.031220   0.558442
    19  H   -0.004304  -0.000022   0.000010  -0.000166  -0.000130   0.000001
    20  H   -0.003019   0.000068  -0.000017  -0.000084  -0.000033   0.002973
    21  H   -0.000002   0.000001   0.000002   0.000000   0.000013   0.000002
    22  H   -0.000002   0.000001   0.000000   0.000000  -0.000205   0.003536
    23  H    0.000002  -0.000001  -0.000004   0.000000   0.002839  -0.000241
    24  H   -0.006777   0.000221  -0.000007   0.009207  -0.000004   0.000000
    25  H    0.006579  -0.000132   0.000093  -0.003143   0.000004  -0.000039
    26  H    0.000019  -0.000026   0.000306  -0.000019   0.000142   0.000220
    27  H   -0.000072  -0.000014   0.000174  -0.000063   0.000027  -0.000842
    28  H   -0.000019   0.000003  -0.000037  -0.000118  -0.000002   0.000202
    29  H    0.000001  -0.000121   0.001718  -0.000383   0.000004  -0.000004
    30  H    0.000009  -0.000014   0.000026   0.003953   0.000000  -0.000002
    31  H   -0.000004   0.000001  -0.000075   0.000229   0.000000  -0.000001
             19         20         21         22         23         24
     1  C   -0.027258  -0.080163  -0.128288  -0.103231  -0.128529  -0.021458
     2  C   -0.015313  -0.114042  -0.003663  -0.008719  -0.011086   0.138792
     3  C    0.001684  -0.015003  -0.006752  -0.004045  -0.000543  -0.023332
     4  C    0.053191   0.077944   0.003892   0.004978   0.003429  -0.144963
     5  C    0.026127   0.010063   0.023960   0.007708   0.001898   0.011432
     6  C    0.314765   0.412296   0.009714   0.000645   0.033172   0.045208
     7  C   -0.009576   0.019650   0.460550   0.450889   0.460317  -0.002149
     8  O   -0.004481   0.010557  -0.000121   0.000096   0.000115   0.208834
     9  C   -0.008502   0.000982   0.000239   0.000559  -0.000111   0.025408
    10  C    0.000010  -0.018311  -0.000133  -0.000479   0.000062  -0.001631
    11  C    0.000539   0.002664   0.000019   0.000141  -0.000036  -0.001186
    12  H   -0.003686   0.005000  -0.003619   0.004641  -0.003645  -0.000233
    13  H   -0.004304  -0.003019  -0.000002  -0.000002   0.000002  -0.006777
    14  H   -0.000022   0.000068   0.000001   0.000001  -0.000001   0.000221
    15  H    0.000010  -0.000017   0.000002   0.000000  -0.000004  -0.000007
    16  H   -0.000166  -0.000084   0.000000   0.000000   0.000000   0.009207
    17  H   -0.000130  -0.000033   0.000013  -0.000205   0.002839  -0.000004
    18  H    0.000001   0.002973   0.000002   0.003536  -0.000241   0.000000
    19  H    0.531717  -0.027554   0.002622  -0.000075  -0.000004  -0.000057
    20  H   -0.027554   0.559567  -0.000306   0.003412  -0.000003  -0.000299
    21  H    0.002622  -0.000306   0.532522  -0.028493  -0.025235   0.000000
    22  H   -0.000075   0.003412  -0.028493   0.538763  -0.028435   0.000000
    23  H   -0.000004  -0.000003  -0.025235  -0.028435   0.534610   0.000000
    24  H   -0.000057  -0.000299   0.000000   0.000000   0.000000   0.412861
    25  H   -0.000014   0.000065   0.000000   0.000000   0.000000   0.000010
    26  H   -0.000002   0.000001   0.000000  -0.000007   0.000000   0.000000
    27  H    0.000106   0.002207   0.000001   0.000002   0.000000   0.000000
    28  H   -0.000001   0.000085   0.000000   0.000001   0.000000   0.000000
    29  H    0.000000   0.000001   0.000000   0.000000   0.000000   0.000001
    30  H    0.000000   0.000000   0.000000   0.000000   0.000000  -0.000011
    31  H    0.000000  -0.000001   0.000000   0.000000   0.000000   0.000000
             25         26         27         28         29         30
     1  C    0.004953   0.005940   0.003481  -0.000235   0.001472   0.000265
     2  C   -0.017135  -0.004883   0.044734   0.006709   0.003658  -0.009368
     3  C    0.013425   0.023602  -0.029643   0.000641  -0.003554   0.021050
     4  C   -0.031256  -0.012801  -0.012830   0.027856   0.008976  -0.004053
     5  C   -0.021461  -0.028146   0.012124  -0.000161  -0.010393   0.002473
     6  C    0.012141   0.004012  -0.032504  -0.001898   0.000530   0.001317
     7  C   -0.000580  -0.000009  -0.000478  -0.000515  -0.000043   0.000103
     8  O    0.000309   0.000025  -0.000231   0.000013  -0.000033   0.000019
     9  C    0.288772  -0.082388  -0.049496  -0.117952  -0.102812  -0.088285
    10  C    0.018210   0.450112   0.421550   0.442567   0.003921   0.003015
    11  C   -0.002575  -0.006874   0.000267   0.001459   0.447590   0.431511
    12  H   -0.000002  -0.000003  -0.000006   0.000000   0.000000   0.000000
    13  H    0.006579   0.000019  -0.000072  -0.000019   0.000001   0.000009
    14  H   -0.000132  -0.000026  -0.000014   0.000003  -0.000121  -0.000014
    15  H    0.000093   0.000306   0.000174  -0.000037   0.001718   0.000026
    16  H   -0.003143  -0.000019  -0.000063  -0.000118  -0.000383   0.003953
    17  H    0.000004   0.000142   0.000027  -0.000002   0.000004   0.000000
    18  H   -0.000039   0.000220  -0.000842   0.000202  -0.000004  -0.000002
    19  H   -0.000014  -0.000002   0.000106  -0.000001   0.000000   0.000000
    20  H    0.000065   0.000001   0.002207   0.000085   0.000001   0.000000
    21  H    0.000000   0.000000   0.000001   0.000000   0.000000   0.000000
    22  H    0.000000  -0.000007   0.000002   0.000001   0.000000   0.000000
    23  H    0.000000   0.000000   0.000000   0.000000   0.000000   0.000000
    24  H    0.000010   0.000000   0.000000   0.000000   0.000001  -0.000011
    25  H    0.591246   0.005098  -0.003409  -0.004241   0.005106  -0.003811
    26  H    0.005098   0.532700  -0.028149  -0.028424   0.003259   0.000017
    27  H   -0.003409  -0.028149   0.544013  -0.026423  -0.000003  -0.000142
    28  H   -0.004241  -0.028424  -0.026423   0.533904  -0.000160   0.000087
    29  H    0.005106   0.003259  -0.000003  -0.000160   0.534169  -0.028249
    30  H   -0.003811   0.000017  -0.000142   0.000087  -0.028249   0.535406
    31  H   -0.003705  -0.000241   0.000052   0.002766  -0.027906  -0.025076
             31
     1  C   -0.000479
     2  C   -0.004725
     3  C    0.000540
     4  C    0.029962
     5  C    0.000102
     6  C   -0.000213
     7  C   -0.000038
     8  O   -0.000004
     9  C   -0.114660
    10  C    0.003860
    11  C    0.444642
    12  H    0.000000
    13  H   -0.000004
    14  H    0.000001
    15  H   -0.000075
    16  H    0.000229
    17  H    0.000000
    18  H   -0.000001
    19  H    0.000000
    20  H   -0.000001
    21  H    0.000000
    22  H    0.000000
    23  H    0.000000
    24  H    0.000000
    25  H   -0.003705
    26  H   -0.000241
    27  H    0.000052
    28  H    0.002766
    29  H   -0.027906
    30  H   -0.025076
    31  H    0.530650
 Mulliken atomic charges:
              1
     1  C    0.264323
     2  C   -0.029470
     3  C   -0.507534
     4  C   -0.087014
     5  C   -0.321471
     6  C   -0.340505
     7  C   -0.713509
     8  O   -0.518138
     9  C    0.185161
    10  C   -0.601490
    11  C   -0.663584
    12  H    0.175113
    13  H    0.127095
    14  H    0.171089
    15  H    0.152931
    16  H    0.126207
    17  H    0.154407
    18  H    0.152948
    19  H    0.170373
    20  H    0.151303
    21  H    0.163074
    22  H    0.158317
    23  H    0.161430
    24  H    0.350132
    25  H    0.145492
    26  H    0.166518
    27  H    0.155567
    28  H    0.163895
    29  H    0.163256
    30  H    0.159759
    31  H    0.164324
 Sum of Mulliken atomic charges =   0.00000
 Mulliken charges with hydrogens summed into heavy atoms:
              1
     1  C    0.439436
     2  C    0.097626
     3  C   -0.183514
     4  C    0.039192
     5  C   -0.014116
     6  C   -0.018829
     7  C   -0.230688
     8  O   -0.168006
     9  C    0.330653
    10  C   -0.115509
    11  C   -0.176245
 Sum of Mulliken charges with hydrogens summed into heavy atoms =   0.00000
 Electronic spatial extent (au):  <R**2>=           2043.4867
 Charge=              0.0000 electrons
 Dipole moment (field-independent basis, Debye):
    X=              1.8547    Y=             -0.2477    Z=             -0.1274  Tot=              1.8755
 Quadrupole moment (field-independent basis, Debye-Ang):
   XX=            -73.4918   YY=            -72.0630   ZZ=            -71.4214
   XY=              4.5573   XZ=             -0.2067   YZ=              0.5219
 Traceless Quadrupole moment (field-independent basis, Debye-Ang):
   XX=             -1.1664   YY=              0.2624   ZZ=              0.9040
   XY=              4.5573   XZ=             -0.2067   YZ=              0.5219
 Octapole moment (field-independent basis, Debye-Ang**2):
  XXX=             -0.6435  YYY=             20.0198  ZZZ=              0.7023  XYY=             14.9275
  XXY=              0.8694  XXZ=             -1.7066  XZZ=             -1.3653  YZZ=              3.7845
  YYZ=              4.7051  XYZ=              1.8688
 Hexadecapole moment (field-independent basis, Debye-Ang**3):
 XXXX=          -1724.9767 YYYY=           -653.4812 ZZZZ=           -426.8232 XXXY=            -14.8989
 XXXZ=            -14.4022 YYYX=             31.8519 YYYZ=             17.3103 ZZZX=             -5.3620
 ZZZY=             -1.5686 XXYY=           -414.9283 XXZZ=           -351.7055 YYZZ=           -181.2234
 XXYZ=             -2.1266 YYXZ=              1.1170 ZZXY=             -2.6386
 N-N= 6.966002470567D+02 E-N=-2.478576826560D+03  KE= 4.636958982772D+02
 1\1\GINC-COMPUTE-10-2\SP\RmPW1PW91\6-31+G(d,p)\C10H20O1\ASAROTTI.IQUIR
 \19-Sep-2024\0\\# mPW1PW91/6-31+G** nmr scrf=(pcm,solvent=benzene)\\co
 mment\\0,1\C,0,-2.00127,-0.275555,0.20845\C,0,-0.163807,1.304082,-0.60
 4471\C,0,0.231451,-0.156621,1.448034\C,0,0.90551,0.627965,0.295064\C,0
 ,-0.948607,-1.048004,1.021476\C,0,-1.332085,0.396867,-1.002159\C,0,-3.
 161878,-1.178682,-0.222027\O,0,-0.766153,2.410261,0.084098\C,0,2.02930
 6,-0.11757,-0.489468\C,0,1.690209,-1.512041,-1.042846\C,0,3.31192,-0.2
 05829,0.357796\H,0,-2.402098,0.524598,0.845279\H,0,0.330122,1.672361,-
 1.520127\H,0,-0.147902,0.577985,2.169615\H,0,0.978108,-0.754263,1.9861
 8\H,0,1.4381,1.471378,0.765367\H,0,-1.414557,-1.476042,1.919759\H,0,-0
 .595425,-1.899773,0.425736\H,0,-2.062122,1.007493,-1.547999\H,0,-0.975
 602,-0.370766,-1.701056\H,0,-3.918813,-0.616022,-0.781862\H,0,-2.80988
 8,-1.995045,-0.866874\H,0,-3.655989,-1.631991,0.646036\H,0,-0.053414,3
 .006218,0.362409\H,0,2.264793,0.522418,-1.354526\H,0,1.511658,-2.23256
 5,-0.236557\H,0,0.810408,-1.509076,-1.692765\H,0,2.532616,-1.890681,-1
 .634415\H,0,3.163203,-0.828544,1.248508\H,0,3.640931,0.784553,0.694492
 \H,0,4.1306,-0.651988,-0.219079\\Version=AM64L-G09RevC.01\State=1-A\HF
 =-468.2774469\RMSD=8.147e-09\Dipole=0.7296831,-0.0974628,-0.0501141\Qu
 adrupole=-0.8671875,0.1950874,0.6721001,3.3882431,-0.1537014,0.3880352
 \PG=C01 [X(C10H20O1)]\\@


 SUCCESS-- IF YOU HAVE TRIED TO DO SOMETHING AND FAILED
           YOU ARE BETTER OFF THAN IF YOU HAD TRIED TO DO
           NOTHING AND SUCCEEDED.

                   -- FROM THE BACK OF A SUGAR PACKET
 Job cpu time:  0 days  0 hours  9 minutes 34.4 seconds.
 File lengths (MBytes):  RWF=    121 Int=      0 D2E=      0 Chk=      7 Scr=      1
 Normal termination of Gaussian 09 at Thu Sep 19 09:10:52 2024.
