 Entering Gaussian System, Link 0=g09
 Input=/home/asarotti.iquir/SCF2/02_Mentol03_OptB_NMR_benzene.gjc
 Output=/home/asarotti.iquir/SCF2/02_Mentol03_OptB_NMR_benzene.log
 Initial command:
 /opt/ohpc/pub/apps/software/Gaussian/09/AMD64.SSE4a-enabled/g09/l1.exe /local/asarotti.iquir/Gau-1835814.inp -scrdir=/local/asarotti.iquir/
 Entering Link 1 = /opt/ohpc/pub/apps/software/Gaussian/09/AMD64.SSE4a-enabled/g09/l1.exe PID=   1835815.
  
 Copyright (c) 1988,1990,1992,1993,1995,1998,2003,2009,2011,
            Gaussian, Inc.  All Rights Reserved.
  
 This is part of the Gaussian(R) 09 program.  It is based on
 the Gaussian(R) 03 system (copyright 2003, Gaussian, Inc.),
 the Gaussian(R) 98 system (copyright 1998, Gaussian, Inc.),
 the Gaussian(R) 94 system (copyright 1995, Gaussian, Inc.),
 the Gaussian 92(TM) system (copyright 1992, Gaussian, Inc.),
 the Gaussian 90(TM) system (copyright 1990, Gaussian, Inc.),
 the Gaussian 88(TM) system (copyright 1988, Gaussian, Inc.),
 the Gaussian 86(TM) system (copyright 1986, Carnegie Mellon
 University), and the Gaussian 82(TM) system (copyright 1983,
 Carnegie Mellon University). Gaussian is a federally registered
 trademark of Gaussian, Inc.
  
 This software contains proprietary and confidential information,
 including trade secrets, belonging to Gaussian, Inc.
  
 This software is provided under written license and may be
 used, copied, transmitted, or stored only in accord with that
 written license.
  
 The following legend is applicable only to US Government
 contracts under FAR:
  
                    RESTRICTED RIGHTS LEGEND
  
 Use, reproduction and disclosure by the US Government is
 subject to restrictions as set forth in subparagraphs (a)
 and (c) of the Commercial Computer Software - Restricted
 Rights clause in FAR 52.227-19.
  
 Gaussian, Inc.
 340 Quinnipiac St., Bldg. 40, Wallingford CT 06492
  
  
 ---------------------------------------------------------------
 Warning -- This program may not be used in any manner that
 competes with the business of Gaussian, Inc. or will provide
 assistance to any competitor of Gaussian, Inc.  The licensee
 of this program is prohibited from giving any competitor of
 Gaussian, Inc. access to this program.  By using this program,
 the user acknowledges that Gaussian, Inc. is engaged in the
 business of creating and licensing software in the field of
 computational chemistry and represents and warrants to the
 licensee that it is not a competitor of Gaussian, Inc. and that
 it will not use this program in any manner prohibited above.
 ---------------------------------------------------------------
  

 Cite this work as:
 Gaussian 09, Revision C.01,
 M. J. Frisch, G. W. Trucks, H. B. Schlegel, G. E. Scuseria, 
 M. A. Robb, J. R. Cheeseman, G. Scalmani, V. Barone, B. Mennucci, 
 G. A. Petersson, H. Nakatsuji, M. Caricato, X. Li, H. P. Hratchian, 
 A. F. Izmaylov, J. Bloino, G. Zheng, J. L. Sonnenberg, M. Hada, 
 M. Ehara, K. Toyota, R. Fukuda, J. Hasegawa, M. Ishida, T. Nakajima, 
 Y. Honda, O. Kitao, H. Nakai, T. Vreven, J. A. Montgomery, Jr., 
 J. E. Peralta, F. Ogliaro, M. Bearpark, J. J. Heyd, E. Brothers, 
 K. N. Kudin, V. N. Staroverov, T. Keith, R. Kobayashi, J. Normand, 
 K. Raghavachari, A. Rendell, J. C. Burant, S. S. Iyengar, J. Tomasi, 
 M. Cossi, N. Rega, J. M. Millam, M. Klene, J. E. Knox, J. B. Cross, 
 V. Bakken, C. Adamo, J. Jaramillo, R. Gomperts, R. E. Stratmann, 
 O. Yazyev, A. J. Austin, R. Cammi, C. Pomelli, J. W. Ochterski, 
 R. L. Martin, K. Morokuma, V. G. Zakrzewski, G. A. Voth, 
 P. Salvador, J. J. Dannenberg, S. Dapprich, A. D. Daniels, 
 O. Farkas, J. B. Foresman, J. V. Ortiz, J. Cioslowski, 
 and D. J. Fox, Gaussian, Inc., Wallingford CT, 2010.
 
 ******************************************
 Gaussian 09:  AM64L-G09RevC.01 23-Sep-2011
                19-Sep-2024 
 ******************************************
 %nprocshared=4
 Will use up to    4 processors via shared memory.
 %mem=100mw
 --------------------------------------------------
 # mPW1PW91/6-31+G** nmr scrf=(pcm,solvent=benzene)
 --------------------------------------------------
 1/38=1/1;
 2/12=2,17=6,18=5,40=1/2;
 3/5=1,6=6,7=111,11=2,16=1,25=1,30=1,70=2201,72=12,74=-7/1,2,8,3;
 4//1;
 5/5=2,38=5,53=12/2;
 8/6=1,10=90,11=11/1;
 10/13=100,45=16/2;
 6/7=2,8=2,9=2,10=2,28=1/1;
 99/9=1/99;
 -------
 comment
 -------
 Charge =  0 Multiplicity = 1
 Symbolic Z-Matrix:
 6                     2.37396  -0.31215  -0.27111 
 6                     0.26556   1.1325    0.03594 
 6                     0.04677  -1.37644  -0.09581 
 6                    -0.62862  -0.03377  -0.44562 
 6                     1.45758  -1.47761  -0.69756 
 6                     1.67388   1.03121  -0.5584 
 6                     2.84507  -0.43556   1.18826 
 8                    -0.23792   2.4097   -0.36983 
 6                    -2.10283   0.08295   0.0308 
 6                    -2.29191  -0.066     1.55041 
 6                    -3.02749  -0.88766  -0.72192 
 1                     3.27584  -0.35006  -0.89847 
 1                     0.33723   1.10169   1.13552 
 1                    -0.56174  -2.21219  -0.4616 
 1                     0.10041  -1.49419   0.99489 
 1                    -0.65473   0.05011  -1.54394 
 1                     1.37175  -1.47682  -1.79366 
 1                     1.91643  -2.43651  -0.42196 
 1                     1.57995   1.17225  -1.64404 
 1                     2.27427   1.86999  -0.18522 
 1                     3.5159    0.39089   1.45179 
 1                     2.01392  -0.4222    1.90222 
 1                     3.39374  -1.37277   1.34146 
 1                    -1.03706   2.59302   0.14596 
 1                    -2.43193   1.09542  -0.24791 
 1                    -2.04657  -1.07928   1.88969 
 1                    -1.66851   0.63271   2.12098 
 1                    -3.33554   0.12541   1.8269 
 1                    -2.81517  -1.93262  -0.46649 
 1                    -2.91903  -0.77924  -1.80767 
 1                    -4.07759  -0.69799  -0.46972 
 
                          Input orientation:                          
 ---------------------------------------------------------------------
 Center     Atomic      Atomic             Coordinates (Angstroms)
 Number     Number       Type             X           Y           Z
 ---------------------------------------------------------------------
      1          6           0        2.373959   -0.312152   -0.271108
      2          6           0        0.265560    1.132500    0.035937
      3          6           0        0.046774   -1.376444   -0.095806
      4          6           0       -0.628623   -0.033767   -0.445617
      5          6           0        1.457584   -1.477607   -0.697563
      6          6           0        1.673876    1.031206   -0.558402
      7          6           0        2.845068   -0.435555    1.188255
      8          8           0       -0.237922    2.409699   -0.369830
      9          6           0       -2.102830    0.082947    0.030798
     10          6           0       -2.291909   -0.065996    1.550412
     11          6           0       -3.027492   -0.887664   -0.721922
     12          1           0        3.275838   -0.350063   -0.898466
     13          1           0        0.337233    1.101689    1.135517
     14          1           0       -0.561744   -2.212193   -0.461597
     15          1           0        0.100410   -1.494191    0.994887
     16          1           0       -0.654730    0.050109   -1.543939
     17          1           0        1.371749   -1.476818   -1.793656
     18          1           0        1.916428   -2.436513   -0.421963
     19          1           0        1.579952    1.172247   -1.644037
     20          1           0        2.274270    1.869985   -0.185217
     21          1           0        3.515903    0.390888    1.451792
     22          1           0        2.013923   -0.422197    1.902220
     23          1           0        3.393736   -1.372770    1.341459
     24          1           0       -1.037064    2.593018    0.145959
     25          1           0       -2.431933    1.095423   -0.247912
     26          1           0       -2.046565   -1.079282    1.889694
     27          1           0       -1.668507    0.632706    2.120983
     28          1           0       -3.335535    0.125414    1.826903
     29          1           0       -2.815173   -1.932620   -0.466492
     30          1           0       -2.919033   -0.779243   -1.807673
     31          1           0       -4.077588   -0.697989   -0.469718
 ---------------------------------------------------------------------
                    Distance matrix (angstroms):
                    1          2          3          4          5
     1  C    0.000000
     2  C    2.574227   0.000000
     3  C    2.565003   2.521909   0.000000
     4  C    3.020505   1.546492   1.543149   0.000000
     5  C    1.542690   2.961689   1.537118   2.549590   0.000000
     6  C    1.541838   1.531944   2.942488   2.539368   2.521962
     7  C    1.538477   3.231175   3.219400   3.859728   2.562673
     8  O    3.773611   1.431565   3.806707   2.475665   4.253622
     9  C    4.504319   2.590533   2.601278   1.553667   3.955046
    10  C    5.014863   3.204789   3.145909   2.598402   4.593989
    11  C    5.450699   3.936954   3.175223   2.561261   4.523774
    12  H    1.099273   3.483228   3.482036   3.943340   2.148899
    13  H    2.850578   1.102344   2.782385   2.173045   3.356805
    14  H    3.502113   3.481227   1.096619   2.179511   2.161708
    15  H    2.858144   2.801136   1.098341   2.177012   2.169466
    16  H    3.305191   2.124738   2.150407   1.101829   2.740828
    17  H    2.163105   3.373367   2.155998   2.810888   1.099449
    18  H    2.178302   3.958900   2.173875   3.500147   1.098178
    19  H    2.172285   2.133429   3.353130   2.787200   2.816472
    20  H    2.186101   2.151211   3.938151   3.481216   3.483654
    21  H    2.183274   3.622066   4.189675   4.577946   3.513926
    22  H    2.205695   2.992803   2.961819   3.556159   2.860468
    23  H    2.182940   4.215003   3.642513   4.600646   2.813767
    24  H    4.499893   1.960114   4.121867   2.723378   4.848173
    25  H    5.007834   2.712640   3.503891   2.136840   4.685191
    26  H    4.979818   3.697880   2.900445   2.925293   4.373971
    27  H    4.791282   2.887529   3.448627   2.848329   4.708510
    28  H    6.098478   4.146042   4.170420   3.537945   5.649477
    29  H    5.439778   4.374736   2.938959   2.896045   4.303125
    30  H    5.531272   4.146721   3.476082   2.767112   4.568898
    31  H    6.466125   4.740181   4.196483   3.512425   5.594448
                    6          7          8          9         10
     6  C    0.000000
     7  C    2.563960   0.000000
     8  O    2.364482   4.475257   0.000000
     9  C    3.938256   5.107861   3.008681   0.000000
    10  C    4.623678   5.162970   3.746366   1.538558   0.000000
    11  C    5.080518   6.191942   4.333390   1.537424   2.525811
    12  H    2.142389   2.132434   4.499139   5.475500   6.089130
    13  H    2.158922   2.941961   2.075515   2.865684   2.906547
    14  H    3.940432   4.181486   4.634131   2.808036   3.412889
    15  H    3.356506   2.948092   4.149371   2.875952   2.841045
    16  H    2.712239   4.466468   2.668319   2.139595   3.502691
    17  H    2.811995   3.485210   4.441096   4.223056   5.157092
    18  H    3.478868   2.731118   5.303745   4.765197   5.217252
    19  H    1.098780   3.493912   2.541566   4.189813   5.170015
    20  H    1.096946   2.743675   2.576137   4.732776   5.254562
    21  H    2.800705   1.096576   4.635203   5.803810   5.826590
    22  H    2.877963   1.095777   4.272312   4.550280   4.334840
    23  H    3.513757   1.096759   5.515843   5.835168   5.837626
    24  H    3.206958   5.032851   0.968644   2.729391   3.258447
    25  H    4.118033   5.679191   2.560443   1.100498   2.145337
    26  H    4.928389   4.983420   4.533170   2.193043   1.096382
    27  H    4.302259   4.731123   3.377636   2.204483   1.096524
    28  H    5.621774   6.238783   4.431569   2.178843   1.096467
    29  H    5.379988   6.084219   5.050475   2.194821   2.797497
    30  H    5.092467   6.505272   4.407391   2.188501   3.489805
    31  H    6.006440   7.123266   4.940722   2.181753   2.769294
                   11         12         13         14         15
    11  C    0.000000
    12  H    6.328677   0.000000
    13  H    4.327699   3.857469   0.000000
    14  H    2.811060   4.287822   3.786918   0.000000
    15  H    3.619265   3.870033   2.610451   1.753659   0.000000
    16  H    2.680509   4.003266   3.044552   2.509606   3.066062
    17  H    4.566075   2.386734   4.037199   2.460397   3.064731
    18  H    5.189533   2.535414   4.175940   2.488619   2.488645
    19  H    5.130504   2.397777   3.045529   4.176058   4.032723
    20  H    6.000113   2.537809   2.467130   4.978307   4.175643
    21  H    7.012542   2.475955   3.272493   5.202335   3.927834
    22  H    5.702512   3.072698   2.391935   3.927566   2.373596
    23  H    6.762029   2.465176   3.937965   4.427354   3.313737
    24  H    4.102459   5.324817   2.256541   4.866735   4.326639
    25  H    2.124149   5.923791   3.095512   3.805731   3.829283
    26  H    2.796332   6.052567   3.317817   3.002790   2.362696
    27  H    3.498639   5.876177   2.283436   3.998511   2.986779
    28  H    2.760023   7.166866   3.862687   4.289004   3.888584
    29  H    1.096475   6.308051   4.659520   2.270711   3.290664
    30  H    1.096528   6.275929   4.775305   3.069540   4.181211
    31  H    1.096488   7.374127   5.030533   3.828059   4.498297
                   16         17         18         19         20
    16  H    0.000000
    17  H    2.549604   0.000000
    18  H    3.748729   1.760463   0.000000
    19  H    2.502602   2.661443   3.824896   0.000000
    20  H    3.706361   3.821349   4.327820   1.759850   0.000000
    21  H    5.146330   4.314934   3.750130   3.733977   2.531636
    22  H    4.384153   3.896680   3.077142   3.912355   3.111153
    23  H    5.171091   3.732051   2.534491   4.322049   3.754917
    24  H    3.077064   5.111561   5.860190   3.474399   3.405494
    25  H    2.435327   4.844971   5.604740   4.248563   4.769929
    26  H    3.873314   5.040831   4.784469   5.541504   5.627881
    27  H    3.846923   5.386803   5.360824   5.001896   4.732326
    28  H    4.307547   6.150944   6.261308   6.107806   6.209836
    29  H    3.124039   4.415817   4.758565   5.508533   6.359351
    30  H    2.425788   4.347139   5.296076   4.906726   6.051543
    31  H    3.664636   5.661684   6.241232   6.073267   6.857225
                   21         22         23         24         25
    21  H    0.000000
    22  H    1.766334   0.000000
    23  H    1.771324   1.766897   0.000000
    24  H    5.223417   4.635137   6.065368   0.000000
    25  H    6.225923   5.166418   6.523534   2.084127   0.000000
    26  H    5.770113   4.113330   5.475726   4.188734   3.073631
    27  H    5.233011   3.836791   5.500536   2.853465   2.531519
    28  H    6.866832   5.377941   6.911100   3.767972   2.462168
    29  H    7.011492   5.586801   6.490968   4.900833   3.060015
    30  H    7.307648   6.182624   7.079573   4.327890   2.486864
    31  H    7.908158   6.542833   7.717278   4.522673   2.444116
                   26         27         28         29         30
    26  H    0.000000
    27  H    1.768425   0.000000
    28  H    1.765412   1.767148   0.000000
    29  H    2.621175   3.819786   3.125051   0.000000
    30  H    3.810741   4.357953   3.768557   1.771957   0.000000
    31  H    3.136441   3.779703   2.550118   1.765790   1.771715
                   31
    31  H    0.000000
 Stoichiometry    C10H20O
 Framework group  C1[X(C10H20O)]
 Deg. of freedom    87
 Full point group                 C1      NOp   1
 Largest Abelian subgroup         C1      NOp   1
 Largest concise Abelian subgroup C1      NOp   1
                         Standard orientation:                         
 ---------------------------------------------------------------------
 Center     Atomic      Atomic             Coordinates (Angstroms)
 Number     Number       Type             X           Y           Z
 ---------------------------------------------------------------------
      1          6           0        2.373959   -0.312152   -0.271108
      2          6           0        0.265560    1.132500    0.035937
      3          6           0        0.046774   -1.376444   -0.095806
      4          6           0       -0.628623   -0.033767   -0.445617
      5          6           0        1.457584   -1.477607   -0.697563
      6          6           0        1.673876    1.031206   -0.558402
      7          6           0        2.845068   -0.435555    1.188255
      8          8           0       -0.237922    2.409699   -0.369830
      9          6           0       -2.102830    0.082947    0.030798
     10          6           0       -2.291909   -0.065996    1.550412
     11          6           0       -3.027492   -0.887664   -0.721922
     12          1           0        3.275838   -0.350063   -0.898466
     13          1           0        0.337233    1.101689    1.135517
     14          1           0       -0.561744   -2.212193   -0.461597
     15          1           0        0.100410   -1.494191    0.994887
     16          1           0       -0.654730    0.050109   -1.543939
     17          1           0        1.371749   -1.476818   -1.793656
     18          1           0        1.916428   -2.436513   -0.421963
     19          1           0        1.579952    1.172247   -1.644037
     20          1           0        2.274270    1.869985   -0.185217
     21          1           0        3.515903    0.390888    1.451792
     22          1           0        2.013923   -0.422197    1.902220
     23          1           0        3.393736   -1.372770    1.341459
     24          1           0       -1.037064    2.593018    0.145959
     25          1           0       -2.431933    1.095423   -0.247912
     26          1           0       -2.046565   -1.079282    1.889694
     27          1           0       -1.668507    0.632706    2.120983
     28          1           0       -3.335535    0.125414    1.826903
     29          1           0       -2.815173   -1.932620   -0.466492
     30          1           0       -2.919033   -0.779243   -1.807673
     31          1           0       -4.077588   -0.697989   -0.469718
 ---------------------------------------------------------------------
 Rotational constants (GHZ):      1.5641561      0.7541035      0.6401669
 Standard basis: 6-31+G(d,p) (6D, 7F)
 There are   309 symmetry adapted basis functions of A   symmetry.
 Integral buffers will be    131072 words long.
 Raffenetti 2 integral format.
 Two-electron integral symmetry is turned on.
   309 basis functions,   492 primitive gaussians,   309 cartesian basis functions
    44 alpha electrons       44 beta electrons
       nuclear repulsion energy       693.6677946604 Hartrees.
 NAtoms=   31 NActive=   31 NUniq=   31 SFac= 1.00D+00 NAtFMM=   60 NAOKFM=F Big=F
 ------------------------------------------------------------------------------
 Polarizable Continuum Model (PCM)
 =================================
 Model                : PCM.
 Atomic radii         : UFF (Universal Force Field).
 Polarization charges : Total charges.
 Charge compensation  : None.
 Solution method      : Matrix inversion.
 Cavity type          : Scaled VdW (van der Waals Surface) (Alpha=1.100).
 Cavity algorithm     : GePol (No added spheres)
                        Default sphere list used, NSphG=   31.
                        Lebedev-Laikov grids with approx.  5.0 points / Ang**2.
                        Smoothing algorithm: Karplus/York (Gamma=1.0000).
                        Polarization charges: spherical gaussians, with
                                              point-specific exponents (IZeta= 3).
                        Self-potential: point-specific (ISelfS= 7).
                        Self-field    : sphere-specific E.n sum rule (ISelfD= 2).
 Solvent              : Benzene, Eps=   2.270600 Eps(inf)=   2.253301
 ------------------------------------------------------------------------------
 One-electron integrals computed using PRISM.
 NBasis=   309 RedAO= T  NBF=   309
 NBsUse=   309 1.00D-06 NBFU=   309
 Harris functional with IExCor=  908 diagonalized for initial guess.
 ExpMin= 4.38D-02 ExpMax= 5.48D+03 ExpMxC= 8.25D+02 IAcc=2 IRadAn=         4 AccDes= 0.00D+00
 HarFok:  IExCor=  908 AccDes= 0.00D+00 IRadAn=         4 IDoV= 1
 ScaDFX=  1.000000  1.000000  1.000000  1.000000
 FoFCou: FMM=F IPFlag=           0 FMFlag=      100000 FMFlg1=           0
         NFxFlg=           0 DoJE=T BraDBF=F KetDBF=T FulRan=T
         Omega=  0.000000  0.000000  1.000000  0.000000  0.000000 ICntrl=     500 IOpCl=  0
         NMat0=    1 NMatS0=    1 NMatT0=    0 NMatD0=    1 NMtDS0=    0 NMtDT0=    0
         I1Cent=           4 NGrid=           0.
 Petite list used in FoFCou.
 Initial guess orbital symmetries:
       Occupied  (A) (A) (A) (A) (A) (A) (A) (A) (A) (A) (A) (A)
                 (A) (A) (A) (A) (A) (A) (A) (A) (A) (A) (A) (A)
                 (A) (A) (A) (A) (A) (A) (A) (A) (A) (A) (A) (A)
                 (A) (A) (A) (A) (A) (A) (A) (A)
       Virtual   (A) (A) (A) (A) (A) (A) (A) (A) (A) (A) (A) (A)
                 (A) (A) (A) (A) (A) (A) (A) (A) (A) (A) (A) (A)
                 (A) (A) (A) (A) (A) (A) (A) (A) (A) (A) (A) (A)
                 (A) (A) (A) (A) (A) (A) (A) (A) (A) (A) (A) (A)
                 (A) (A) (A) (A) (A) (A) (A) (A) (A) (A) (A) (A)
                 (A) (A) (A) (A) (A) (A) (A) (A) (A) (A) (A) (A)
                 (A) (A) (A) (A) (A) (A) (A) (A) (A) (A) (A) (A)
                 (A) (A) (A) (A) (A) (A) (A) (A) (A) (A) (A) (A)
                 (A) (A) (A) (A) (A) (A) (A) (A) (A) (A) (A) (A)
                 (A) (A) (A) (A) (A) (A) (A) (A) (A) (A) (A) (A)
                 (A) (A) (A) (A) (A) (A) (A) (A) (A) (A) (A) (A)
                 (A) (A) (A) (A) (A) (A) (A) (A) (A) (A) (A) (A)
                 (A) (A) (A) (A) (A) (A) (A) (A) (A) (A) (A) (A)
                 (A) (A) (A) (A) (A) (A) (A) (A) (A) (A) (A) (A)
                 (A) (A) (A) (A) (A) (A) (A) (A) (A) (A) (A) (A)
                 (A) (A) (A) (A) (A) (A) (A) (A) (A) (A) (A) (A)
                 (A) (A) (A) (A) (A) (A) (A) (A) (A) (A) (A) (A)
                 (A) (A) (A) (A) (A) (A) (A) (A) (A) (A) (A) (A)
                 (A) (A) (A) (A) (A) (A) (A) (A) (A) (A) (A) (A)
                 (A) (A) (A) (A) (A) (A) (A) (A) (A) (A) (A) (A)
                 (A) (A) (A) (A) (A) (A) (A) (A) (A) (A) (A) (A)
                 (A) (A) (A) (A) (A) (A) (A) (A) (A) (A) (A) (A)
                 (A)
 The electronic state of the initial guess is 1-A.
 Requested convergence on RMS density matrix=1.00D-08 within 128 cycles.
 Requested convergence on MAX density matrix=1.00D-06.
 Requested convergence on             energy=1.00D-06.
 No special actions if energy rises.
 Error on total polarization charges =  0.00925
 SCF Done:  E(RmPW1PW91) =  -468.282041178     A.U. after   12 cycles
             Convg  =    0.8993D-08             -V/T =  2.0099
 Range of M.O.s used for correlation:     1   309
 NBasis=   309 NAE=    44 NBE=    44 NFC=     0 NFV=     0
 NROrb=    309 NOA=    44 NOB=    44 NVA=   265 NVB=   265

 **** Warning!!: The largest alpha MO coefficient is  0.76424160D+02

 NEqPCM:  Using equilibrium solvation (IEInf=0, Eps=   2.2706, EpsInf=   2.2533)
          Differentiating once with respect to magnetic field using GIAOs.
          Electric field/nuclear overlap derivatives assumed to be zero.
 FoFCou: FMM=F IPFlag=           0 FMFlag=    10101102 FMFlg1=           0
         NFxFlg=    40000000 DoJE=F BraDBF=F KetDBF=T FulRan=T
         Omega=  0.000000  0.000000  1.000000  0.000000  0.000000 ICntrl=    6100 IOpCl=  0
         NMat0=    1 NMatS0=    1 NMatT0=    0 NMatD0=    1 NMtDS0=    0 NMtDT0=    0
         I1Cent=           7 NGrid=        1918.
 Symmetry not used in FoFCou.
          There are     3 degrees of freedom in the 1st order CPHF.  IDoFFX=0.
      3 vectors produced by pass  0 Test12= 3.89D-13 3.33D-08 XBig12= 3.99D+01 1.10D+00.
 AX will form     3 AO Fock derivatives at one time.
      3 vectors produced by pass  1 Test12= 3.89D-13 3.33D-08 XBig12= 8.20D-02 5.04D-02.
      3 vectors produced by pass  2 Test12= 3.89D-13 3.33D-08 XBig12= 1.68D-04 2.42D-03.
      3 vectors produced by pass  3 Test12= 3.89D-13 3.33D-08 XBig12= 6.57D-07 2.17D-04.
      3 vectors produced by pass  4 Test12= 3.89D-13 3.33D-08 XBig12= 1.47D-09 7.79D-06.
      3 vectors produced by pass  5 Test12= 3.89D-13 3.33D-08 XBig12= 3.37D-12 4.03D-07.
 Inverted reduced A of dimension    18 with in-core refinement.
 Calculating GIAO nuclear magnetic shielding tensors.
 SCF GIAO Magnetic shielding tensor (ppm):
      1  C    Isotropic =   163.9939   Anisotropy =     4.6531
   XX=   165.6461   YX=     0.4758   ZX=     1.9143
   XY=     2.1952   YY=   165.7961   ZY=    -1.3767
   XZ=     0.6219   YZ=     0.2715   ZZ=   160.5393
   Eigenvalues:   160.1113   164.7743   167.0959
      2  C    Isotropic =   127.5563   Anisotropy =    57.6056
   XX=   119.1737   YX=    -8.7447   ZX=     9.7424
   XY=   -13.3334   YY=   157.2140   ZY=   -13.6897
   XZ=    11.5905   YZ=   -18.7776   ZZ=   106.2811
   Eigenvalues:    98.6451   118.0637   165.9600
      3  C    Isotropic =   176.1925   Anisotropy =    12.8115
   XX=   179.9222   YX=    -4.6632   ZX=    -3.3958
   XY=    -3.3242   YY=   181.0294   ZY=    -0.9645
   XZ=    -2.9669   YZ=     0.5152   ZZ=   167.6259
   Eigenvalues:   166.7494   177.0946   184.7335
      4  C    Isotropic =   142.8537   Anisotropy =     9.6808
   XX=   142.7675   YX=    14.1502   ZX=    -0.5315
   XY=    -0.5339   YY=   139.7473   ZY=     0.4124
   XZ=    -4.8135   YZ=     0.5195   ZZ=   146.0463
   Eigenvalues:   133.9350   145.3186   149.3076
      5  C    Isotropic =   162.5777   Anisotropy =    12.1397
   XX=   165.3138   YX=     3.9527   ZX=     5.1383
   XY=     4.0351   YY=   162.7360   ZY=     5.9758
   XZ=     3.2845   YZ=     0.0825   ZZ=   159.6833
   Eigenvalues:   157.2338   159.8284   170.6708
      6  C    Isotropic =   155.4215   Anisotropy =    22.1109
   XX=   162.2268   YX=   -12.2860   ZX=     1.3666
   XY=    -6.8358   YY=   157.7297   ZY=   -10.1703
   XZ=    -3.4916   YZ=    -1.6941   ZZ=   146.3078
   Eigenvalues:   142.3840   153.7183   170.1620
      7  C    Isotropic =   176.4183   Anisotropy =    30.6272
   XX=   164.8669   YX=    -1.0561   ZX=    15.7998
   XY=    -1.1405   YY=   178.1041   ZY=    -2.6654
   XZ=    19.7464   YZ=    -3.2010   ZZ=   186.2839
   Eigenvalues:   154.8153   177.6032   196.8364
      8  O    Isotropic =   288.5463   Anisotropy =    29.0877
   XX=   294.1118   YX=   -22.4797   ZX=    -4.8151
   XY=   -14.3916   YY=   283.3263   ZY=     0.3361
   XZ=    -4.3124   YZ=   -13.9899   ZZ=   288.2008
   Eigenvalues:   266.4228   291.2781   307.9381
      9  C    Isotropic =   167.4229   Anisotropy =    10.0504
   XX=   171.4960   YX=    -1.3170   ZX=    -0.7614
   XY=     1.4218   YY=   159.0324   ZY=     2.9367
   XZ=    -2.8621   YZ=     5.4074   ZZ=   171.7401
   Eigenvalues:   157.7612   170.3842   174.1231
     10  C    Isotropic =   180.3418   Anisotropy =    24.8524
   XX=   172.3519   YX=     0.5255   ZX=    -2.7981
   XY=     0.6592   YY=   171.7991   ZY=    -0.8955
   XZ=     1.7076   YZ=     2.4582   ZZ=   196.8745
   Eigenvalues:   171.3863   172.7291   196.9101
     11  C    Isotropic =   173.8950   Anisotropy =    36.7083
   XX=   173.8899   YX=    13.7331   ZX=    11.0261
   XY=    16.8842   YY=   165.0142   ZY=    13.6606
   XZ=     6.3645   YZ=     9.9402   ZZ=   182.7808
   Eigenvalues:   152.7730   170.5448   198.3672
     12  H    Isotropic =    29.5877   Anisotropy =    10.1322
   XX=    33.8707   YX=    -0.4711   ZX=    -4.0560
   XY=    -0.4414   YY=    25.5381   ZY=     0.1827
   XZ=    -4.2071   YZ=     0.1722   ZZ=    29.3544
   Eigenvalues:    25.5119    26.9088    36.3425
     13  H    Isotropic =    27.7954   Anisotropy =     2.5776
   XX=    27.8636   YX=    -1.3096   ZX=     0.8924
   XY=    -1.8089   YY=    26.9661   ZY=    -0.8185
   XZ=     0.3784   YZ=     0.2694   ZZ=    28.5567
   Eigenvalues:    25.7822    28.0903    29.5138
     14  H    Isotropic =    30.2144   Anisotropy =     9.0540
   XX=    32.9779   YX=     2.1069   ZX=     0.5138
   XY=     2.7386   YY=    33.8850   ZY=     2.5431
   XZ=     0.1499   YZ=     2.2985   ZZ=    23.7802
   Eigenvalues:    23.2252    31.1675    36.2504
     15  H    Isotropic =    30.3142   Anisotropy =     5.5160
   XX=    31.3006   YX=    -1.2899   ZX=    -1.3519
   XY=    -0.6403   YY=    27.3771   ZY=    -3.4743
   XZ=    -0.7925   YZ=    -3.0025   ZZ=    32.2650
   Eigenvalues:    25.4541    31.4970    33.9915
     16  H    Isotropic =    30.4044   Anisotropy =     3.2415
   XX=    31.6378   YX=     0.0060   ZX=     0.0748
   XY=     0.7569   YY=    27.0745   ZY=    -0.5665
   XZ=    -0.0298   YZ=    -0.6202   ZZ=    32.5008
   Eigenvalues:    26.9791    31.6687    32.5653
     17  H    Isotropic =    30.0395   Anisotropy =     8.8736
   XX=    28.5224   YX=     0.1157   ZX=    -1.1791
   XY=     0.0961   YY=    27.4200   ZY=     4.3393
   XZ=    -1.0424   YZ=     3.1126   ZZ=    34.1763
   Eigenvalues:    25.6607    28.5026    35.9553
     18  H    Isotropic =    30.1265   Anisotropy =     9.7200
   XX=    30.2151   YX=    -3.2985   ZX=     0.0179
   XY=    -3.6459   YY=    34.6847   ZY=     0.6198
   XZ=     0.1889   YZ=     0.7488   ZZ=    25.4797
   Eigenvalues:    25.3927    28.3803    36.6065
     19  H    Isotropic =    30.0835   Anisotropy =     6.8952
   XX=    28.7278   YX=     0.2011   ZX=    -1.6247
   XY=    -0.4732   YY=    28.9802   ZY=    -3.8103
   XZ=    -1.4626   YZ=    -2.5526   ZZ=    32.5426
   Eigenvalues:    26.6779    28.8924    34.6804
     20  H    Isotropic =    29.7572   Anisotropy =     7.7596
   XX=    31.1197   YX=     2.9209   ZX=     0.9176
   XY=     3.0206   YY=    32.4952   ZY=     0.7053
   XZ=     1.0555   YZ=    -0.1719   ZZ=    25.6567
   Eigenvalues:    25.4727    28.8687    34.9302
     21  H    Isotropic =    30.6636   Anisotropy =    10.3464
   XX=    32.1741   YX=     3.6216   ZX=     4.0123
   XY=     3.3982   YY=    30.2720   ZY=     1.2815
   XZ=     4.6528   YZ=     2.5957   ZZ=    29.5446
   Eigenvalues:    26.2101    28.2194    37.5612
     22  H    Isotropic =    30.2982   Anisotropy =     5.3602
   XX=    31.5411   YX=    -0.3833   ZX=     0.0226
   XY=    -0.5470   YY=    25.6508   ZY=    -0.6289
   XZ=    -1.1815   YZ=    -0.5009   ZZ=    33.7028
   Eigenvalues:    25.5685    31.4545    33.8717
     23  H    Isotropic =    30.7921   Anisotropy =    11.0056
   XX=    31.2829   YX=    -4.3258   ZX=     3.3608
   XY=    -4.5694   YY=    31.9864   ZY=    -1.7605
   XZ=     3.7931   YZ=    -3.2404   ZZ=    29.1068
   Eigenvalues:    26.2827    27.9644    38.1291
     24  H    Isotropic =    30.0225   Anisotropy =    17.1230
   XX=    34.7219   YX=    -4.7375   ZX=    -7.7962
   XY=    -5.4991   YY=    31.5657   ZY=     1.0196
   XZ=    -7.4932   YZ=     1.9542   ZZ=    23.7800
   Eigenvalues:    19.7504    28.8794    41.4379
     25  H    Isotropic =    29.6004   Anisotropy =     6.5523
   XX=    30.2383   YX=    -1.1989   ZX=     0.7747
   XY=    -0.7604   YY=    33.0919   ZY=    -2.2349
   XZ=     1.0458   YZ=    -1.8149   ZZ=    25.4710
   Eigenvalues:    24.8859    29.9467    33.9686
     26  H    Isotropic =    30.9244   Anisotropy =     7.4655
   XX=    29.0408   YX=    -1.1598   ZX=    -1.3949
   XY=    -1.1222   YY=    31.9742   ZY=    -3.5455
   XZ=    -1.1751   YZ=    -4.5201   ZZ=    31.7581
   Eigenvalues:    26.6161    30.2556    35.9014
     27  H    Isotropic =    30.6230   Anisotropy =     8.6931
   XX=    29.5136   YX=     2.5202   ZX=    -0.1261
   XY=     2.7547   YY=    28.3233   ZY=     3.4835
   XZ=     0.8974   YZ=     4.4100   ZZ=    34.0320
   Eigenvalues:    25.1637    30.2869    36.4184
     28  H    Isotropic =    30.8264   Anisotropy =    10.9809
   XX=    34.8475   YX=    -1.5849   ZX=    -3.9829
   XY=    -1.4225   YY=    26.5213   ZY=     1.2801
   XZ=    -4.9521   YZ=     1.2222   ZZ=    31.1103
   Eigenvalues:    26.1744    28.1577    38.1470
     29  H    Isotropic =    30.5594   Anisotropy =     7.1791
   XX=    30.4421   YX=     1.9139   ZX=     0.9530
   XY=     1.1956   YY=    34.7722   ZY=     0.2720
   XZ=     0.9396   YZ=     0.7989   ZZ=    26.4638
   Eigenvalues:    26.2461    30.0866    35.3455
     30  H    Isotropic =    30.7795   Anisotropy =    10.3386
   XX=    29.3511   YX=     1.3381   ZX=     3.3238
   XY=     1.0882   YY=    26.4630   ZY=     1.6927
   XZ=     2.2514   YZ=     0.5649   ZZ=    36.5244
   Eigenvalues:    26.0197    28.6469    37.6719
     31  H    Isotropic =    30.5340   Anisotropy =    10.7348
   XX=    37.5795   YX=     0.3027   ZX=     0.4471
   XY=     1.3740   YY=    26.5629   ZY=     0.7424
   XZ=     0.7916   YZ=     1.3118   ZZ=    27.4596
   Eigenvalues:    25.8789    28.0325    37.6905
 End of Minotr Frequency-dependent properties file   721 does not exist.
 End of Minotr Frequency-dependent properties file   722 does not exist.

 **********************************************************************

            Population analysis using the SCF density.

 **********************************************************************

 Orbital symmetries:
       Occupied  (A) (A) (A) (A) (A) (A) (A) (A) (A) (A) (A) (A)
                 (A) (A) (A) (A) (A) (A) (A) (A) (A) (A) (A) (A)
                 (A) (A) (A) (A) (A) (A) (A) (A) (A) (A) (A) (A)
                 (A) (A) (A) (A) (A) (A) (A) (A)
       Virtual   (A) (A) (A) (A) (A) (A) (A) (A) (A) (A) (A) (A)
                 (A) (A) (A) (A) (A) (A) (A) (A) (A) (A) (A) (A)
                 (A) (A) (A) (A) (A) (A) (A) (A) (A) (A) (A) (A)
                 (A) (A) (A) (A) (A) (A) (A) (A) (A) (A) (A) (A)
                 (A) (A) (A) (A) (A) (A) (A) (A) (A) (A) (A) (A)
                 (A) (A) (A) (A) (A) (A) (A) (A) (A) (A) (A) (A)
                 (A) (A) (A) (A) (A) (A) (A) (A) (A) (A) (A) (A)
                 (A) (A) (A) (A) (A) (A) (A) (A) (A) (A) (A) (A)
                 (A) (A) (A) (A) (A) (A) (A) (A) (A) (A) (A) (A)
                 (A) (A) (A) (A) (A) (A) (A) (A) (A) (A) (A) (A)
                 (A) (A) (A) (A) (A) (A) (A) (A) (A) (A) (A) (A)
                 (A) (A) (A) (A) (A) (A) (A) (A) (A) (A) (A) (A)
                 (A) (A) (A) (A) (A) (A) (A) (A) (A) (A) (A) (A)
                 (A) (A) (A) (A) (A) (A) (A) (A) (A) (A) (A) (A)
                 (A) (A) (A) (A) (A) (A) (A) (A) (A) (A) (A) (A)
                 (A) (A) (A) (A) (A) (A) (A) (A) (A) (A) (A) (A)
                 (A) (A) (A) (A) (A) (A) (A) (A) (A) (A) (A) (A)
                 (A) (A) (A) (A) (A) (A) (A) (A) (A) (A) (A) (A)
                 (A) (A) (A) (A) (A) (A) (A) (A) (A) (A) (A) (A)
                 (A) (A) (A) (A) (A) (A) (A) (A) (A) (A) (A) (A)
                 (A) (A) (A) (A) (A) (A) (A) (A) (A) (A) (A) (A)
                 (A) (A) (A) (A) (A) (A) (A) (A) (A) (A) (A) (A)
                 (A)
 The electronic state is 1-A.
 Alpha  occ. eigenvalues --  -19.24598 -10.29373 -10.25506 -10.25088 -10.24664
 Alpha  occ. eigenvalues --  -10.24116 -10.24007 -10.23692 -10.23671 -10.23468
 Alpha  occ. eigenvalues --  -10.23336  -1.05078  -0.86130  -0.82370  -0.76405
 Alpha  occ. eigenvalues --   -0.75479  -0.70538  -0.69750  -0.63857  -0.62151
 Alpha  occ. eigenvalues --   -0.57333  -0.55230  -0.52746  -0.48968  -0.47140
 Alpha  occ. eigenvalues --   -0.46196  -0.45517  -0.43590  -0.42705  -0.41866
 Alpha  occ. eigenvalues --   -0.40906  -0.40330  -0.38987  -0.38786  -0.36725
 Alpha  occ. eigenvalues --   -0.35899  -0.35088  -0.34524  -0.34312  -0.33529
 Alpha  occ. eigenvalues --   -0.32262  -0.31410  -0.30108  -0.27908
 Alpha virt. eigenvalues --    0.00508   0.01197   0.02081   0.02287   0.03834
 Alpha virt. eigenvalues --    0.04321   0.04411   0.04970   0.05484   0.06975
 Alpha virt. eigenvalues --    0.07280   0.07517   0.07999   0.08167   0.09210
 Alpha virt. eigenvalues --    0.09447   0.10005   0.10982   0.11578   0.11948
 Alpha virt. eigenvalues --    0.12314   0.12643   0.13117   0.14098   0.14713
 Alpha virt. eigenvalues --    0.14982   0.15467   0.15897   0.17000   0.17406
 Alpha virt. eigenvalues --    0.17669   0.17907   0.18162   0.19289   0.19642
 Alpha virt. eigenvalues --    0.19967   0.20577   0.20833   0.22132   0.22186
 Alpha virt. eigenvalues --    0.22982   0.23494   0.23781   0.24128   0.24772
 Alpha virt. eigenvalues --    0.25063   0.25325   0.26219   0.26520   0.26716
 Alpha virt. eigenvalues --    0.28567   0.28815   0.29266   0.29702   0.30092
 Alpha virt. eigenvalues --    0.31272   0.31585   0.32005   0.32994   0.33551
 Alpha virt. eigenvalues --    0.33928   0.34361   0.34949   0.36078   0.36699
 Alpha virt. eigenvalues --    0.37761   0.38258   0.39345   0.39925   0.41727
 Alpha virt. eigenvalues --    0.42134   0.42514   0.45635   0.49530   0.52542
 Alpha virt. eigenvalues --    0.61845   0.63878   0.65356   0.65666   0.66235
 Alpha virt. eigenvalues --    0.68268   0.68913   0.70424   0.71434   0.72097
 Alpha virt. eigenvalues --    0.73167   0.73994   0.75196   0.76423   0.77296
 Alpha virt. eigenvalues --    0.77993   0.79148   0.82064   0.82888   0.83846
 Alpha virt. eigenvalues --    0.85247   0.86336   0.89057   0.91108   0.93784
 Alpha virt. eigenvalues --    0.95813   0.96678   0.98275   0.98839   0.99684
 Alpha virt. eigenvalues --    1.00841   1.01222   1.02840   1.03759   1.05300
 Alpha virt. eigenvalues --    1.05862   1.07091   1.09579   1.09745   1.11516
 Alpha virt. eigenvalues --    1.12123   1.14173   1.14855   1.15064   1.16240
 Alpha virt. eigenvalues --    1.17692   1.19113   1.20170   1.20515   1.21295
 Alpha virt. eigenvalues --    1.23317   1.25542   1.27348   1.28957   1.32597
 Alpha virt. eigenvalues --    1.33380   1.37076   1.40640   1.42247   1.45580
 Alpha virt. eigenvalues --    1.48429   1.50707   1.52816   1.54358   1.57974
 Alpha virt. eigenvalues --    1.60106   1.61184   1.62696   1.63748   1.65232
 Alpha virt. eigenvalues --    1.70533   1.74699   1.76853   1.77635   1.79815
 Alpha virt. eigenvalues --    1.82329   1.84068   1.85491   1.86891   1.87658
 Alpha virt. eigenvalues --    1.88260   1.89443   1.90877   1.92199   1.93232
 Alpha virt. eigenvalues --    1.94770   1.96112   1.98000   2.01528   2.03492
 Alpha virt. eigenvalues --    2.04487   2.05115   2.06837   2.07304   2.07883
 Alpha virt. eigenvalues --    2.08796   2.10212   2.13832   2.14763   2.15342
 Alpha virt. eigenvalues --    2.15926   2.16872   2.17335   2.18616   2.19933
 Alpha virt. eigenvalues --    2.21227   2.21675   2.24456   2.26316   2.28416
 Alpha virt. eigenvalues --    2.32224   2.33162   2.35027   2.36015   2.37533
 Alpha virt. eigenvalues --    2.38461   2.40434   2.40953   2.42182   2.43540
 Alpha virt. eigenvalues --    2.45099   2.50512   2.53055   2.53329   2.55935
 Alpha virt. eigenvalues --    2.58659   2.59320   2.62000   2.64601   2.66207
 Alpha virt. eigenvalues --    2.67387   2.70708   2.70987   2.72077   2.73087
 Alpha virt. eigenvalues --    2.73498   2.74663   2.76096   2.77294   2.78354
 Alpha virt. eigenvalues --    2.78549   2.80887   2.82253   2.84335   2.86117
 Alpha virt. eigenvalues --    2.87381   2.89924   2.90994   2.91516   2.91997
 Alpha virt. eigenvalues --    2.93339   2.94909   2.95742   2.96500   2.96956
 Alpha virt. eigenvalues --    2.99878   3.06213   3.07514   3.14181   3.29227
 Alpha virt. eigenvalues --    3.29884   3.30592   3.36520   3.36870   3.38320
 Alpha virt. eigenvalues --    3.40619   3.42846   3.46897   3.47915   3.50865
 Alpha virt. eigenvalues --    3.51865   3.52849   3.53818   3.56070   3.56180
 Alpha virt. eigenvalues --    3.57269   3.59175   3.61522   3.64710   4.35131
 Alpha virt. eigenvalues --    4.45374   4.48226   4.52041   4.57188   4.59210
 Alpha virt. eigenvalues --    4.66992   4.76044   4.82204   4.86962   4.90545
          Condensed to atoms (all electrons):
              1          2          3          4          5          6
     1  C    6.206495  -0.451312  -0.233462   0.073022  -0.118655  -0.032529
     2  C   -0.451312   7.520706  -0.704519  -0.973487   0.253172  -0.235936
     3  C   -0.233462  -0.704519   6.688440  -0.247852   0.032650   0.106667
     4  C    0.073022  -0.973487  -0.247852   8.048767  -0.113569  -0.226190
     5  C   -0.118655   0.253172   0.032650  -0.113569   5.996046   0.042794
     6  C   -0.032529  -0.235936   0.106667  -0.226190   0.042794   6.402636
     7  C    0.191915   0.006437  -0.072445   0.078389  -0.090481  -0.100071
     8  O    0.010316   0.232007   0.042250  -0.050843   0.021570  -0.088810
     9  C    0.119981   0.400417  -0.194398  -1.022112  -0.133191   0.039848
    10  C    0.003695   0.021127  -0.097261   0.067902  -0.034810  -0.073058
    11  C   -0.015463  -0.226426   0.274468   0.190806   0.005664  -0.010577
    12  H    0.252700   0.043842   0.031773  -0.009243  -0.007079   0.001079
    13  H    0.045385   0.345378   0.031984  -0.002598  -0.027068  -0.104571
    14  H    0.040770   0.034176   0.269144  -0.035279   0.025794  -0.001359
    15  H    0.021723  -0.019434   0.447667  -0.052340  -0.075167  -0.033943
    16  H    0.032902  -0.023129   0.020164   0.296710  -0.053074  -0.053062
    17  H    0.011337  -0.018867  -0.036429   0.027764   0.361082  -0.045480
    18  H   -0.092044  -0.006882  -0.076034   0.032588   0.424050   0.039465
    19  H    0.037149  -0.077100   0.000602   0.047063  -0.050973   0.342984
    20  H   -0.066399  -0.097339  -0.009616   0.045002   0.035161   0.429341
    21  H   -0.087935   0.005388  -0.010584  -0.004979   0.031986   0.002133
    22  H   -0.077213   0.019675   0.001293   0.014492  -0.013165  -0.012292
    23  H   -0.094043  -0.010436   0.007302  -0.005045   0.004868   0.029828
    24  H   -0.006404   0.081076   0.002371  -0.109893  -0.003407   0.014808
    25  H    0.001073  -0.072757   0.014241   0.033162  -0.002094  -0.007268
    26  H    0.000089  -0.018246   0.009670   0.016869  -0.001208   0.001072
    27  H   -0.000803   0.015380  -0.016018  -0.001179   0.001010   0.003620
    28  H    0.000194   0.000202  -0.002069   0.029558   0.000249  -0.000325
    29  H    0.000989  -0.005685   0.003737  -0.000809  -0.001088  -0.002091
    30  H   -0.000671  -0.005368   0.017724  -0.000247  -0.001025  -0.000563
    31  H   -0.000142  -0.006422   0.000642   0.043789   0.000557   0.000559
              7          8          9         10         11         12
     1  C    0.191915   0.010316   0.119981   0.003695  -0.015463   0.252700
     2  C    0.006437   0.232007   0.400417   0.021127  -0.226426   0.043842
     3  C   -0.072445   0.042250  -0.194398  -0.097261   0.274468   0.031773
     4  C    0.078389  -0.050843  -1.022112   0.067902   0.190806  -0.009243
     5  C   -0.090481   0.021570  -0.133191  -0.034810   0.005664  -0.007079
     6  C   -0.100071  -0.088810   0.039848  -0.073058  -0.010577   0.001079
     7  C    5.361216   0.000185   0.002639   0.005779  -0.006197  -0.021701
     8  O    0.000185   8.242929  -0.108345  -0.016712   0.031821  -0.000734
     9  C    0.002639  -0.108345   7.722136  -0.043100  -0.747795  -0.000886
    10  C    0.005779  -0.016712  -0.043100   5.560916  -0.148396   0.000355
    11  C   -0.006197   0.031821  -0.747795  -0.148396   5.932877   0.000286
    12  H   -0.021701  -0.000734  -0.000886   0.000355   0.000286   0.574306
    13  H    0.008334  -0.047349  -0.021529   0.012962   0.008541  -0.000138
    14  H    0.000826  -0.000440   0.031533  -0.011352  -0.022892  -0.000133
    15  H    0.010039  -0.000115   0.001188   0.008278   0.004570  -0.000083
    16  H    0.004036  -0.000692   0.049732   0.016117  -0.020307  -0.000103
    17  H    0.012438  -0.000107   0.005723   0.000889   0.001832  -0.006053
    18  H    0.005157   0.000069  -0.003503   0.001006  -0.000851  -0.001897
    19  H    0.013990  -0.000640   0.004575   0.000452   0.001927  -0.006257
    20  H   -0.002601   0.001379  -0.005398  -0.001481   0.000130  -0.002314
    21  H    0.423248  -0.000080  -0.000424  -0.000311  -0.000055  -0.003717
    22  H    0.421667  -0.000434  -0.001810   0.001727   0.000678   0.004862
    23  H    0.426089   0.000032  -0.000577   0.000006  -0.000134  -0.003980
    24  H   -0.000377   0.222952   0.043755  -0.013429   0.007317   0.000004
    25  H   -0.000657   0.007805   0.242305  -0.013799   0.061918   0.000000
    26  H   -0.000460   0.000147  -0.116340   0.454431   0.005796   0.000000
    27  H    0.000494  -0.000570  -0.049845   0.409621  -0.003204   0.000000
    28  H   -0.000117   0.000245  -0.113082   0.443234   0.001533   0.000000
    29  H   -0.000157   0.000007  -0.118916  -0.001769   0.474356   0.000000
    30  H    0.000078  -0.000042  -0.098499   0.000142   0.447976   0.000000
    31  H   -0.000034   0.000096  -0.135647   0.002297   0.453695   0.000000
             13         14         15         16         17         18
     1  C    0.045385   0.040770   0.021723   0.032902   0.011337  -0.092044
     2  C    0.345378   0.034176  -0.019434  -0.023129  -0.018867  -0.006882
     3  C    0.031984   0.269144   0.447667   0.020164  -0.036429  -0.076034
     4  C   -0.002598  -0.035279  -0.052340   0.296710   0.027764   0.032588
     5  C   -0.027068   0.025794  -0.075167  -0.053074   0.361082   0.424050
     6  C   -0.104571  -0.001359  -0.033943  -0.053062  -0.045480   0.039465
     7  C    0.008334   0.000826   0.010039   0.004036   0.012438   0.005157
     8  O   -0.047349  -0.000440  -0.000115  -0.000692  -0.000107   0.000069
     9  C   -0.021529   0.031533   0.001188   0.049732   0.005723  -0.003503
    10  C    0.012962  -0.011352   0.008278   0.016117   0.000889   0.001006
    11  C    0.008541  -0.022892   0.004570  -0.020307   0.001832  -0.000851
    12  H   -0.000138  -0.000133  -0.000083  -0.000103  -0.006053  -0.001897
    13  H    0.610418  -0.000157   0.002423   0.005107   0.000064   0.000002
    14  H   -0.000157   0.553623  -0.031009  -0.004151  -0.004719  -0.002598
    15  H    0.002423  -0.031009   0.547728   0.004700   0.004547  -0.003371
    16  H    0.005107  -0.004151   0.004700   0.560257   0.002802   0.000050
    17  H    0.000064  -0.004719   0.004547   0.002802   0.544735  -0.027507
    18  H    0.000002  -0.002598  -0.003371   0.000050  -0.027507   0.553259
    19  H    0.004887  -0.000045   0.000076   0.003182   0.002224  -0.000027
    20  H   -0.005292   0.000011  -0.000014   0.000026  -0.000036  -0.000125
    21  H    0.000144   0.000002  -0.000034   0.000001  -0.000128   0.000073
    22  H   -0.002000  -0.000046  -0.001130  -0.000039  -0.000080  -0.000074
    23  H    0.000005  -0.000019   0.000202   0.000002   0.000068   0.002964
    24  H   -0.008258  -0.000003   0.000002  -0.000218   0.000001   0.000000
    25  H    0.000305  -0.000018  -0.000071  -0.004450  -0.000001   0.000002
    26  H    0.000018   0.000079  -0.001307  -0.000061  -0.000002   0.000004
    27  H    0.001322   0.000095  -0.000037  -0.000017   0.000000   0.000000
    28  H    0.000008  -0.000019   0.000036  -0.000086   0.000000   0.000000
    29  H    0.000000  -0.000059   0.000045  -0.000197   0.000008   0.000005
    30  H    0.000003  -0.000084   0.000040   0.003893   0.000005   0.000000
    31  H    0.000003  -0.000026  -0.000013   0.000085   0.000000   0.000000
             19         20         21         22         23         24
     1  C    0.037149  -0.066399  -0.087935  -0.077213  -0.094043  -0.006404
     2  C   -0.077100  -0.097339   0.005388   0.019675  -0.010436   0.081076
     3  C    0.000602  -0.009616  -0.010584   0.001293   0.007302   0.002371
     4  C    0.047063   0.045002  -0.004979   0.014492  -0.005045  -0.109893
     5  C   -0.050973   0.035161   0.031986  -0.013165   0.004868  -0.003407
     6  C    0.342984   0.429341   0.002133  -0.012292   0.029828   0.014808
     7  C    0.013990  -0.002601   0.423248   0.421667   0.426089  -0.000377
     8  O   -0.000640   0.001379  -0.000080  -0.000434   0.000032   0.222952
     9  C    0.004575  -0.005398  -0.000424  -0.001810  -0.000577   0.043755
    10  C    0.000452  -0.001481  -0.000311   0.001727   0.000006  -0.013429
    11  C    0.001927   0.000130  -0.000055   0.000678  -0.000134   0.007317
    12  H   -0.006257  -0.002314  -0.003717   0.004862  -0.003980   0.000004
    13  H    0.004887  -0.005292   0.000144  -0.002000   0.000005  -0.008258
    14  H   -0.000045   0.000011   0.000002  -0.000046  -0.000019  -0.000003
    15  H    0.000076  -0.000014  -0.000034  -0.001130   0.000202   0.000002
    16  H    0.003182   0.000026   0.000001  -0.000039   0.000002  -0.000218
    17  H    0.002224  -0.000036  -0.000128  -0.000080   0.000068   0.000001
    18  H   -0.000027  -0.000125   0.000073  -0.000074   0.002964   0.000000
    19  H    0.529732  -0.026610   0.000059  -0.000110  -0.000121  -0.000030
    20  H   -0.026610   0.535970   0.002864  -0.000142   0.000055  -0.000151
    21  H    0.000059   0.002864   0.529901  -0.027960  -0.024666   0.000000
    22  H   -0.000110  -0.000142  -0.027960   0.540072  -0.028107   0.000010
    23  H   -0.000121   0.000055  -0.024666  -0.028107   0.531594   0.000000
    24  H   -0.000030  -0.000151   0.000000   0.000010   0.000000   0.405240
    25  H    0.000012  -0.000010   0.000000   0.000000   0.000000   0.004070
    26  H    0.000000   0.000000   0.000000  -0.000004   0.000000   0.000012
    27  H   -0.000002   0.000007   0.000000  -0.000009   0.000000   0.000138
    28  H    0.000000   0.000000   0.000000   0.000000   0.000000   0.000000
    29  H    0.000000   0.000000   0.000000   0.000000   0.000000   0.000003
    30  H    0.000002   0.000000   0.000000   0.000000   0.000000  -0.000003
    31  H    0.000000   0.000000   0.000000   0.000000   0.000000   0.000006
             25         26         27         28         29         30
     1  C    0.001073   0.000089  -0.000803   0.000194   0.000989  -0.000671
     2  C   -0.072757  -0.018246   0.015380   0.000202  -0.005685  -0.005368
     3  C    0.014241   0.009670  -0.016018  -0.002069   0.003737   0.017724
     4  C    0.033162   0.016869  -0.001179   0.029558  -0.000809  -0.000247
     5  C   -0.002094  -0.001208   0.001010   0.000249  -0.001088  -0.001025
     6  C   -0.007268   0.001072   0.003620  -0.000325  -0.002091  -0.000563
     7  C   -0.000657  -0.000460   0.000494  -0.000117  -0.000157   0.000078
     8  O    0.007805   0.000147  -0.000570   0.000245   0.000007  -0.000042
     9  C    0.242305  -0.116340  -0.049845  -0.113082  -0.118916  -0.098499
    10  C   -0.013799   0.454431   0.409621   0.443234  -0.001769   0.000142
    11  C    0.061918   0.005796  -0.003204   0.001533   0.474356   0.447976
    12  H    0.000000   0.000000   0.000000   0.000000   0.000000   0.000000
    13  H    0.000305   0.000018   0.001322   0.000008   0.000000   0.000003
    14  H   -0.000018   0.000079   0.000095  -0.000019  -0.000059  -0.000084
    15  H   -0.000071  -0.001307  -0.000037   0.000036   0.000045   0.000040
    16  H   -0.004450  -0.000061  -0.000017  -0.000086  -0.000197   0.003893
    17  H   -0.000001  -0.000002   0.000000   0.000000   0.000008   0.000005
    18  H    0.000002   0.000004   0.000000   0.000000   0.000005   0.000000
    19  H    0.000012   0.000000  -0.000002   0.000000   0.000000   0.000002
    20  H   -0.000010   0.000000   0.000007   0.000000   0.000000   0.000000
    21  H    0.000000   0.000000   0.000000   0.000000   0.000000   0.000000
    22  H    0.000000  -0.000004  -0.000009   0.000000   0.000000   0.000000
    23  H    0.000000   0.000000   0.000000   0.000000   0.000000   0.000000
    24  H    0.004070   0.000012   0.000138   0.000000   0.000003  -0.000003
    25  H    0.602643   0.005012  -0.003256  -0.003823   0.005219  -0.003694
    26  H    0.005012   0.527591  -0.028018  -0.027119   0.003397   0.000017
    27  H   -0.003256  -0.028018   0.542183  -0.026014   0.000015  -0.000136
    28  H   -0.003823  -0.027119  -0.026014   0.526690  -0.000166   0.000059
    29  H    0.005219   0.003397   0.000015  -0.000166   0.537013  -0.027836
    30  H   -0.003694   0.000017  -0.000136   0.000059  -0.027836   0.527985
    31  H   -0.004224  -0.000090   0.000032   0.002575  -0.028305  -0.024844
             31
     1  C   -0.000142
     2  C   -0.006422
     3  C    0.000642
     4  C    0.043789
     5  C    0.000557
     6  C    0.000559
     7  C   -0.000034
     8  O    0.000096
     9  C   -0.135647
    10  C    0.002297
    11  C    0.453695
    12  H    0.000000
    13  H    0.000003
    14  H   -0.000026
    15  H   -0.000013
    16  H    0.000085
    17  H    0.000000
    18  H    0.000000
    19  H    0.000000
    20  H    0.000000
    21  H    0.000000
    22  H    0.000000
    23  H    0.000000
    24  H    0.000006
    25  H   -0.004224
    26  H   -0.000090
    27  H    0.000032
    28  H    0.002575
    29  H   -0.028305
    30  H   -0.024844
    31  H    0.530141
 Mulliken atomic charges:
              1
     1  C    0.227336
     2  C   -0.025640
     3  C   -0.302101
     4  C   -0.190217
     5  C   -0.510597
     6  C   -0.428710
     7  C   -0.677656
     8  O   -0.497896
     9  C    0.251567
    10  C   -0.555457
    11  C   -0.703894
    12  H    0.155112
    13  H    0.141668
    14  H    0.158353
    15  H    0.164804
    16  H    0.159821
    17  H    0.163892
    18  H    0.156219
    19  H    0.172998
    20  H    0.167583
    21  H    0.165074
    22  H    0.160138
    23  H    0.164115
    24  H    0.360409
    25  H    0.138356
    26  H    0.168653
    27  H    0.155190
    28  H    0.168240
    29  H    0.162283
    30  H    0.165087
    31  H    0.165270
 Sum of Mulliken atomic charges =   0.00000
 Mulliken charges with hydrogens summed into heavy atoms:
              1
     1  C    0.382448
     2  C    0.116027
     3  C    0.021057
     4  C   -0.030396
     5  C   -0.190486
     6  C   -0.088130
     7  C   -0.188329
     8  O   -0.137487
     9  C    0.389922
    10  C   -0.063374
    11  C   -0.211253
 Sum of Mulliken charges with hydrogens summed into heavy atoms =   0.00000
 Electronic spatial extent (au):  <R**2>=           2078.9883
 Charge=              0.0000 electrons
 Dipole moment (field-independent basis, Debye):
    X=             -0.6528    Y=             -1.3713    Z=              1.0525  Tot=              1.8478
 Quadrupole moment (field-independent basis, Debye-Ang):
   XX=            -68.9446   YY=            -76.3433   ZZ=            -72.5275
   XY=             -2.7679   XZ=             -1.0706   YZ=              3.5437
 Traceless Quadrupole moment (field-independent basis, Debye-Ang):
   XX=              3.6605   YY=             -3.7382   ZZ=              0.0776
   XY=             -2.7679   XZ=             -1.0706   YZ=              3.5437
 Octapole moment (field-independent basis, Debye-Ang**2):
  XXX=             -1.9745  YYY=             -4.9531  ZZZ=             -4.4957  XYY=             -7.1602
  XXY=             10.0531  XXZ=             -0.6032  XZZ=              0.3464  YZZ=              2.0982
  YYZ=              9.7083  XYZ=             -1.6056
 Hexadecapole moment (field-independent basis, Debye-Ang**3):
 XXXX=          -1747.8879 YYYY=           -712.3334 ZZZZ=           -419.4445 XXXY=            -15.9619
 XXXZ=            -10.7262 YYYX=            -31.2595 YYYZ=             20.5372 ZZZX=             -1.6864
 ZZZY=              0.9251 XXYY=           -393.1761 XXZZ=           -371.9170 YYZZ=           -189.3888
 XXYZ=              0.8573 YYXZ=             -2.9845 ZZXY=             -0.1012
 N-N= 6.936677946604D+02 E-N=-2.472557632792D+03  KE= 4.636951727940D+02
 1\1\GINC-COMPUTE-10-2\SP\RmPW1PW91\6-31+G(d,p)\C10H20O1\ASAROTTI.IQUIR
 \19-Sep-2024\0\\# mPW1PW91/6-31+G** nmr scrf=(pcm,solvent=benzene)\\co
 mment\\0,1\C,0,2.373959,-0.312152,-0.271108\C,0,0.26556,1.1325,0.03593
 7\C,0,0.046774,-1.376444,-0.095806\C,0,-0.628623,-0.033767,-0.445617\C
 ,0,1.457584,-1.477607,-0.697563\C,0,1.673876,1.031206,-0.558402\C,0,2.
 845068,-0.435555,1.188255\O,0,-0.237922,2.409699,-0.36983\C,0,-2.10283
 ,0.082947,0.030798\C,0,-2.291909,-0.065996,1.550412\C,0,-3.027492,-0.8
 87664,-0.721922\H,0,3.275838,-0.350063,-0.898466\H,0,0.337233,1.101689
 ,1.135517\H,0,-0.561744,-2.212193,-0.461597\H,0,0.10041,-1.494191,0.99
 4887\H,0,-0.65473,0.050109,-1.543939\H,0,1.371749,-1.476818,-1.793656\
 H,0,1.916428,-2.436513,-0.421963\H,0,1.579952,1.172247,-1.644037\H,0,2
 .27427,1.869985,-0.185217\H,0,3.515903,0.390888,1.451792\H,0,2.013923,
 -0.422197,1.90222\H,0,3.393736,-1.37277,1.341459\H,0,-1.037064,2.59301
 8,0.145959\H,0,-2.431933,1.095423,-0.247912\H,0,-2.046565,-1.079282,1.
 889694\H,0,-1.668507,0.632706,2.120983\H,0,-3.335535,0.125414,1.826903
 \H,0,-2.815173,-1.93262,-0.466492\H,0,-2.919033,-0.779243,-1.807673\H,
 0,-4.077588,-0.697989,-0.469718\\Version=AM64L-G09RevC.01\State=1-A\HF
 =-468.2820412\RMSD=8.993e-09\Dipole=-0.2568148,-0.539493,0.4140889\Qua
 drupole=2.721503,-2.7792267,0.0577238,-2.0578719,-0.7959582,2.6346888\
 PG=C01 [X(C10H20O1)]\\@


 IT IS UNWORTHY OF EXCELLENT MEN TO LOSE HOURS LIKE SLAVES IN THE LABOR
 OF CALCULATION WHICH COULD BE SAFELY RELEGATED TO ANYONE ELSE
 IF A MACHINE WERE USED.
    -- G.W. VON LEIBNIZ
 Job cpu time:  0 days  0 hours  9 minutes 28.5 seconds.
 File lengths (MBytes):  RWF=    120 Int=      0 D2E=      0 Chk=      7 Scr=      1
 Normal termination of Gaussian 09 at Thu Sep 19 08:22:27 2024.
