 Entering Gaussian System, Link 0=g09
 Input=/home/asarotti.iquir/SCF2/02_Mentol08_OptB_NMR_benzene.gjc
 Output=/home/asarotti.iquir/SCF2/02_Mentol08_OptB_NMR_benzene.log
 Initial command:
 /opt/ohpc/pub/apps/software/Gaussian/09/EM64T.SSE4.2-enabled/g09/l1.exe /local/asarotti.iquir/Gau-532248.inp -scrdir=/local/asarotti.iquir/
 Entering Link 1 = /opt/ohpc/pub/apps/software/Gaussian/09/EM64T.SSE4.2-enabled/g09/l1.exe PID=    532249.
  
 Copyright (c) 1988,1990,1992,1993,1995,1998,2003,2009,2011,
            Gaussian, Inc.  All Rights Reserved.
  
 This is part of the Gaussian(R) 09 program.  It is based on
 the Gaussian(R) 03 system (copyright 2003, Gaussian, Inc.),
 the Gaussian(R) 98 system (copyright 1998, Gaussian, Inc.),
 the Gaussian(R) 94 system (copyright 1995, Gaussian, Inc.),
 the Gaussian 92(TM) system (copyright 1992, Gaussian, Inc.),
 the Gaussian 90(TM) system (copyright 1990, Gaussian, Inc.),
 the Gaussian 88(TM) system (copyright 1988, Gaussian, Inc.),
 the Gaussian 86(TM) system (copyright 1986, Carnegie Mellon
 University), and the Gaussian 82(TM) system (copyright 1983,
 Carnegie Mellon University). Gaussian is a federally registered
 trademark of Gaussian, Inc.
  
 This software contains proprietary and confidential information,
 including trade secrets, belonging to Gaussian, Inc.
  
 This software is provided under written license and may be
 used, copied, transmitted, or stored only in accord with that
 written license.
  
 The following legend is applicable only to US Government
 contracts under FAR:
  
                    RESTRICTED RIGHTS LEGEND
  
 Use, reproduction and disclosure by the US Government is
 subject to restrictions as set forth in subparagraphs (a)
 and (c) of the Commercial Computer Software - Restricted
 Rights clause in FAR 52.227-19.
  
 Gaussian, Inc.
 340 Quinnipiac St., Bldg. 40, Wallingford CT 06492
  
  
 ---------------------------------------------------------------
 Warning -- This program may not be used in any manner that
 competes with the business of Gaussian, Inc. or will provide
 assistance to any competitor of Gaussian, Inc.  The licensee
 of this program is prohibited from giving any competitor of
 Gaussian, Inc. access to this program.  By using this program,
 the user acknowledges that Gaussian, Inc. is engaged in the
 business of creating and licensing software in the field of
 computational chemistry and represents and warrants to the
 licensee that it is not a competitor of Gaussian, Inc. and that
 it will not use this program in any manner prohibited above.
 ---------------------------------------------------------------
  

 Cite this work as:
 Gaussian 09, Revision C.01,
 M. J. Frisch, G. W. Trucks, H. B. Schlegel, G. E. Scuseria, 
 M. A. Robb, J. R. Cheeseman, G. Scalmani, V. Barone, B. Mennucci, 
 G. A. Petersson, H. Nakatsuji, M. Caricato, X. Li, H. P. Hratchian, 
 A. F. Izmaylov, J. Bloino, G. Zheng, J. L. Sonnenberg, M. Hada, 
 M. Ehara, K. Toyota, R. Fukuda, J. Hasegawa, M. Ishida, T. Nakajima, 
 Y. Honda, O. Kitao, H. Nakai, T. Vreven, J. A. Montgomery, Jr., 
 J. E. Peralta, F. Ogliaro, M. Bearpark, J. J. Heyd, E. Brothers, 
 K. N. Kudin, V. N. Staroverov, T. Keith, R. Kobayashi, J. Normand, 
 K. Raghavachari, A. Rendell, J. C. Burant, S. S. Iyengar, J. Tomasi, 
 M. Cossi, N. Rega, J. M. Millam, M. Klene, J. E. Knox, J. B. Cross, 
 V. Bakken, C. Adamo, J. Jaramillo, R. Gomperts, R. E. Stratmann, 
 O. Yazyev, A. J. Austin, R. Cammi, C. Pomelli, J. W. Ochterski, 
 R. L. Martin, K. Morokuma, V. G. Zakrzewski, G. A. Voth, 
 P. Salvador, J. J. Dannenberg, S. Dapprich, A. D. Daniels, 
 O. Farkas, J. B. Foresman, J. V. Ortiz, J. Cioslowski, 
 and D. J. Fox, Gaussian, Inc., Wallingford CT, 2010.
 
 ******************************************
 Gaussian 09:  EM64L-G09RevC.01 23-Sep-2011
                19-Sep-2024 
 ******************************************
 %nprocshared=4
 Will use up to    4 processors via shared memory.
 %mem=100mw
 --------------------------------------------------
 # mPW1PW91/6-31+G** nmr scrf=(pcm,solvent=benzene)
 --------------------------------------------------
 1/38=1/1;
 2/12=2,17=6,18=5,40=1/2;
 3/5=1,6=6,7=111,11=2,16=1,25=1,30=1,70=2201,72=12,74=-7/1,2,8,3;
 4//1;
 5/5=2,38=5,53=12/2;
 8/6=1,10=90,11=11/1;
 10/13=100,45=16/2;
 6/7=2,8=2,9=2,10=2,28=1/1;
 99/9=1/99;
 -------
 comment
 -------
 Charge =  0 Multiplicity = 1
 Symbolic Z-Matrix:
 6                    -2.04291  -0.2849   -0.07623 
 6                    -0.07577   1.37489  -0.04747 
 6                    -0.00283  -0.68376   1.39727 
 6                     0.85941   0.30655   0.58011 
 6                    -1.11715  -1.33632   0.563 
 6                    -1.2151    0.74449  -0.86907 
 6                    -3.12727  -0.92519  -0.94975 
 8                    -0.58597   2.26565   0.95331 
 6                     1.79664  -0.37845  -0.45931 
 6                     2.62494  -1.51728   0.16332 
 6                     2.75303   0.63407  -1.11625 
 1                    -2.55483   0.24789   0.74318 
 1                     0.50187   2.03703  -0.69737 
 1                    -0.46191  -0.14002   2.23701 
 1                     0.62494  -1.44844   1.86472 
 1                     1.50974   0.84596   1.28415 
 1                    -1.70573  -2.01816   1.19137 
 1                    -0.67645  -1.95551  -0.23222 
 1                    -1.86336   1.54934  -1.23756 
 1                    -0.78985   0.25151  -1.7552 
 1                    -3.79994  -0.1675   -1.36907 
 1                    -2.67986  -1.47352  -1.78897 
 1                    -3.73556  -1.63428  -0.37528 
 1                    -1.15629   1.75396   1.54655 
 1                     1.18199  -0.82079  -1.25651 
 1                     3.20217  -1.15902   1.02604 
 1                     2.00461  -2.35374   0.50029 
 1                     3.33792  -1.9155   -0.5681 
 1                     3.36921   1.13532  -0.3583 
 1                     2.22948   1.4096   -1.68364 
 1                     3.43167   0.12618  -1.81137 
 
                          Input orientation:                          
 ---------------------------------------------------------------------
 Center     Atomic      Atomic             Coordinates (Angstroms)
 Number     Number       Type             X           Y           Z
 ---------------------------------------------------------------------
      1          6           0       -2.042906   -0.284904   -0.076233
      2          6           0       -0.075772    1.374889   -0.047467
      3          6           0       -0.002832   -0.683759    1.397268
      4          6           0        0.859411    0.306550    0.580111
      5          6           0       -1.117150   -1.336322    0.563004
      6          6           0       -1.215102    0.744493   -0.869071
      7          6           0       -3.127270   -0.925194   -0.949747
      8          8           0       -0.585967    2.265648    0.953313
      9          6           0        1.796637   -0.378454   -0.459311
     10          6           0        2.624941   -1.517281    0.163324
     11          6           0        2.753029    0.634065   -1.116247
     12          1           0       -2.554833    0.247893    0.743182
     13          1           0        0.501866    2.037031   -0.697371
     14          1           0       -0.461914   -0.140018    2.237012
     15          1           0        0.624936   -1.448437    1.864722
     16          1           0        1.509743    0.845960    1.284147
     17          1           0       -1.705732   -2.018155    1.191372
     18          1           0       -0.676451   -1.955511   -0.232224
     19          1           0       -1.863360    1.549344   -1.237564
     20          1           0       -0.789849    0.251513   -1.755199
     21          1           0       -3.799943   -0.167500   -1.369066
     22          1           0       -2.679857   -1.473521   -1.788967
     23          1           0       -3.735563   -1.634283   -0.375281
     24          1           0       -1.156287    1.753963    1.546549
     25          1           0        1.181985   -0.820785   -1.256514
     26          1           0        3.202172   -1.159022    1.026037
     27          1           0        2.004611   -2.353744    0.500285
     28          1           0        3.337920   -1.915502   -0.568102
     29          1           0        3.369210    1.135316   -0.358296
     30          1           0        2.229481    1.409598   -1.683644
     31          1           0        3.431672    0.126184   -1.811370
 ---------------------------------------------------------------------
                    Distance matrix (angstroms):
                    1          2          3          4          5
     1  C    0.000000
     2  C    2.573977   0.000000
     3  C    2.547978   2.516071   0.000000
     4  C    3.033818   1.552343   1.546583   0.000000
     5  C    1.539847   2.967795   1.537381   2.570236   0.000000
     6  C    1.540620   1.539644   2.940373   2.568176   2.527889
     7  C    1.532594   3.926338   3.915212   4.444242   2.549122
     8  O    3.112547   1.433636   3.039103   2.463019   3.661787
     9  C    3.859740   2.598027   2.603495   1.558211   3.233078
    10  C    4.833729   3.962692   3.020359   2.572385   3.767723
    11  C    4.992707   3.113395   3.955905   2.563335   4.656243
    12  H    1.103351   2.835664   2.794372   3.418639   2.146889
    13  H    3.500437   1.092919   3.470581   2.180450   3.948325
    14  H    2.805643   2.768193   1.100718   2.165789   2.159347
    15  H    3.498356   3.481182   1.094230   2.187506   2.177591
    16  H    3.968728   2.137012   2.154233   1.099801   3.490411
    17  H    2.173630   3.962857   2.173217   3.515374   1.098258
    18  H    2.163899   3.389176   2.174019   2.852311   1.099999
    19  H    2.178392   2.154585   3.923092   3.501708   3.482232
    20  H    2.162596   2.165232   3.381150   2.859504   2.828853
    21  H    2.184578   4.242056   4.726222   5.072829   3.506625
    22  H    2.179902   4.234090   4.235833   4.616016   2.827127
    23  H    2.185255   4.749384   4.240130   5.078720   2.797364
    24  H    2.752543   1.962676   2.700969   2.663089   3.243263
    25  H    3.475652   2.804413   2.909489   2.179020   2.976986
    26  H    5.430463   4.279957   3.261248   2.799157   4.347686
    27  H    4.582015   4.304733   2.761024   2.897416   3.283972
    28  H    5.643941   4.769804   4.067001   3.521209   4.632764
    29  H    5.602462   3.467263   4.214464   2.804737   5.204346
    30  H    4.869127   2.827096   4.342509   2.866774   4.877237
    31  H    5.757664   4.119804   4.769401   3.516851   5.335575
                    6          7          8          9         10
     6  C    0.000000
     7  C    2.539833   0.000000
     8  O    2.455770   4.501259   0.000000
     9  C    3.240291   4.978385   3.829306   0.000000
    10  C    4.574647   5.888754   5.024397   1.539704   0.000000
    11  C    3.977355   6.085797   4.253708   1.539950   2.506391
    12  H    2.154263   2.137715   2.826999   4.557806   5.502920
    13  H    2.155949   4.691386   1.990076   2.750940   4.228638
    14  H    3.316233   4.228009   2.729561   3.525346   3.965565
    15  H    3.958321   4.719541   4.011406   2.814050   2.626693
    16  H    3.474395   5.443267   2.552835   2.149685   2.843382
    17  H    3.481145   2.792799   4.434131   4.204755   4.479117
    18  H    2.825905   2.753708   4.385415   2.941911   3.353758
    19  H    1.097183   2.793501   2.635292   4.209235   5.613512
    20  H    1.099587   2.738052   3.381471   2.960759   4.297692
    21  H    2.786239   1.096548   4.652235   5.673964   6.741607
    22  H    2.812704   1.097785   5.087815   4.796473   5.652808
    23  H    3.500732   1.096740   5.185998   5.673571   6.384340
    24  H    2.618723   4.158624   0.969028   4.158177   5.187681
    25  H    2.888985   4.321422   4.187488   1.099539   2.140834
    26  H    5.169827   6.634775   5.107216   2.188852   1.098098
    27  H    4.673410   5.520829   5.315554   2.205867   1.094542
    28  H    5.281682   6.551721   5.932420   2.179428   1.096313
    29  H    4.629206   6.841036   4.317568   2.185106   2.803978
    30  H    3.601534   5.889367   3.951343   2.209859   3.483432
    31  H    4.781500   6.698321   5.325617   2.180840   2.692807
                   11         12         13         14         15
    11  C    0.000000
    12  H    5.637376   0.000000
    13  H    2.685425   3.823561   0.000000
    14  H    4.709502   2.600445   3.778759   0.000000
    15  H    4.213285   3.774430   4.327581   1.741207   0.000000
    16  H    2.711559   4.143803   2.522078   2.401569   2.526699
    17  H    5.678021   2.461061   4.988524   2.483515   2.491986
    18  H    4.387338   3.055278   4.188697   3.072323   2.519507
    19  H    4.707813   2.468859   2.474660   4.109826   4.980209
    20  H    3.620303   3.058936   2.444504   4.024747   4.242084
    21  H    6.606653   2.486854   4.880235   4.913959   5.628298
    22  H    5.866065   3.064421   4.861987   4.786022   4.926635
    23  H    6.913484   2.487503   5.615879   4.446761   4.905722
    24  H    4.860803   2.206712   2.804421   2.132148   3.678227
    25  H    2.145796   4.370888   2.990370   3.920532   3.232084
    26  H    2.829536   5.933171   4.525101   3.991285   2.725674
    27  H    3.478550   5.255097   4.792862   3.741731   2.141208
    28  H    2.672612   6.412822   4.866460   5.045765   3.673835
    29  H    1.097917   6.090571   3.024851   4.799960   4.375915
    30  H    1.094300   5.488962   2.085920   5.001646   4.830510
    31  H    1.096219   6.509899   3.670980   5.623191   4.885780
                   16         17         18         19         20
    16  H    0.000000
    17  H    4.307092   0.000000
    18  H    3.863556   1.757831   0.000000
    19  H    4.269848   4.318753   3.834510   0.000000
    20  H    3.857346   3.830472   2.683890   1.762026   0.000000
    21  H    6.021578   3.790315   3.774334   2.591370   3.063550
    22  H    5.690059   3.182447   2.582518   3.179375   2.559104
    23  H    6.034778   2.592677   3.079256   3.792645   3.760004
    24  H    2.828611   3.828435   4.141796   2.879775   3.645980
    25  H    3.056210   3.970485   2.406358   3.859015   2.299269
    26  H    2.636454   4.985275   4.154676   6.174038   5.065680
    27  H    3.331282   3.789046   2.807713   5.763282   4.436618
    28  H    3.794566   5.342725   4.028596   6.285432   4.810783
    29  H    2.497792   6.172592   5.092787   5.322060   4.475513
    30  H    3.105398   5.958281   4.677074   4.119449   3.234600
    31  H    3.714043   6.325154   4.868658   5.512894   4.223755
                   21         22         23         24         25
    21  H    0.000000
    22  H    1.771045   0.000000
    23  H    1.772909   1.771685   0.000000
    24  H    4.379697   4.885037   4.671863   0.000000
    25  H    5.025839   3.952644   5.061682   4.466991   0.000000
    26  H    7.466542   6.528508   7.093781   5.268072   3.066855
    27  H    6.478193   5.287694   5.850969   5.287646   2.472452
    28  H    7.392303   6.156257   7.081697   6.175323   2.514035
    29  H    7.356340   6.741221   7.625534   4.948867   3.068726
    30  H    6.240204   5.694301   6.823399   4.692138   2.500859
    31  H    7.251078   6.317463   7.518700   5.913937   2.503139
                   26         27         28         29         30
    26  H    0.000000
    27  H    1.771420   0.000000
    28  H    1.769737   1.763865   0.000000
    29  H    2.684821   3.843544   3.058184   0.000000
    30  H    3.858278   4.356932   3.678228   1.769395   0.000000
    31  H    3.123348   3.678355   2.392276   1.770218   1.763159
                   31
    31  H    0.000000
 Stoichiometry    C10H20O
 Framework group  C1[X(C10H20O)]
 Deg. of freedom    87
 Full point group                 C1      NOp   1
 Largest Abelian subgroup         C1      NOp   1
 Largest concise Abelian subgroup C1      NOp   1
                         Standard orientation:                         
 ---------------------------------------------------------------------
 Center     Atomic      Atomic             Coordinates (Angstroms)
 Number     Number       Type             X           Y           Z
 ---------------------------------------------------------------------
      1          6           0       -2.042906   -0.284904   -0.076233
      2          6           0       -0.075772    1.374889   -0.047467
      3          6           0       -0.002832   -0.683759    1.397268
      4          6           0        0.859411    0.306550    0.580111
      5          6           0       -1.117150   -1.336322    0.563004
      6          6           0       -1.215102    0.744493   -0.869071
      7          6           0       -3.127270   -0.925194   -0.949747
      8          8           0       -0.585967    2.265648    0.953313
      9          6           0        1.796637   -0.378454   -0.459311
     10          6           0        2.624941   -1.517281    0.163324
     11          6           0        2.753029    0.634065   -1.116247
     12          1           0       -2.554833    0.247893    0.743182
     13          1           0        0.501866    2.037031   -0.697371
     14          1           0       -0.461914   -0.140018    2.237012
     15          1           0        0.624936   -1.448437    1.864722
     16          1           0        1.509743    0.845960    1.284147
     17          1           0       -1.705732   -2.018155    1.191372
     18          1           0       -0.676451   -1.955511   -0.232224
     19          1           0       -1.863360    1.549344   -1.237564
     20          1           0       -0.789849    0.251513   -1.755199
     21          1           0       -3.799943   -0.167500   -1.369066
     22          1           0       -2.679857   -1.473521   -1.788967
     23          1           0       -3.735563   -1.634283   -0.375281
     24          1           0       -1.156287    1.753963    1.546549
     25          1           0        1.181985   -0.820785   -1.256514
     26          1           0        3.202172   -1.159022    1.026037
     27          1           0        2.004611   -2.353744    0.500285
     28          1           0        3.337920   -1.915502   -0.568102
     29          1           0        3.369210    1.135316   -0.358296
     30          1           0        2.229481    1.409598   -1.683644
     31          1           0        3.431672    0.126184   -1.811370
 ---------------------------------------------------------------------
 Rotational constants (GHZ):      1.4729855      0.7719575      0.6633311
 Standard basis: 6-31+G(d,p) (6D, 7F)
 There are   309 symmetry adapted basis functions of A   symmetry.
 Integral buffers will be    131072 words long.
 Raffenetti 2 integral format.
 Two-electron integral symmetry is turned on.
   309 basis functions,   492 primitive gaussians,   309 cartesian basis functions
    44 alpha electrons       44 beta electrons
       nuclear repulsion energy       695.8481892713 Hartrees.
 NAtoms=   31 NActive=   31 NUniq=   31 SFac= 1.00D+00 NAtFMM=   60 NAOKFM=F Big=F
 ------------------------------------------------------------------------------
 Polarizable Continuum Model (PCM)
 =================================
 Model                : PCM.
 Atomic radii         : UFF (Universal Force Field).
 Polarization charges : Total charges.
 Charge compensation  : None.
 Solution method      : Matrix inversion.
 Cavity type          : Scaled VdW (van der Waals Surface) (Alpha=1.100).
 Cavity algorithm     : GePol (No added spheres)
                        Default sphere list used, NSphG=   31.
                        Lebedev-Laikov grids with approx.  5.0 points / Ang**2.
                        Smoothing algorithm: Karplus/York (Gamma=1.0000).
                        Polarization charges: spherical gaussians, with
                                              point-specific exponents (IZeta= 3).
                        Self-potential: point-specific (ISelfS= 7).
                        Self-field    : sphere-specific E.n sum rule (ISelfD= 2).
 Solvent              : Benzene, Eps=   2.270600 Eps(inf)=   2.253301
 ------------------------------------------------------------------------------
 One-electron integrals computed using PRISM.
 NBasis=   309 RedAO= T  NBF=   309
 NBsUse=   309 1.00D-06 NBFU=   309
 Harris functional with IExCor=  908 diagonalized for initial guess.
 ExpMin= 4.38D-02 ExpMax= 5.48D+03 ExpMxC= 8.25D+02 IAcc=2 IRadAn=         4 AccDes= 0.00D+00
 HarFok:  IExCor=  908 AccDes= 0.00D+00 IRadAn=         4 IDoV= 1
 ScaDFX=  1.000000  1.000000  1.000000  1.000000
 FoFCou: FMM=F IPFlag=           0 FMFlag=      100000 FMFlg1=           0
         NFxFlg=           0 DoJE=T BraDBF=F KetDBF=T FulRan=T
         Omega=  0.000000  0.000000  1.000000  0.000000  0.000000 ICntrl=     500 IOpCl=  0
         NMat0=    1 NMatS0=    1 NMatT0=    0 NMatD0=    1 NMtDS0=    0 NMtDT0=    0
         I1Cent=           4 NGrid=           0.
 Petite list used in FoFCou.
 Initial guess orbital symmetries:
       Occupied  (A) (A) (A) (A) (A) (A) (A) (A) (A) (A) (A) (A)
                 (A) (A) (A) (A) (A) (A) (A) (A) (A) (A) (A) (A)
                 (A) (A) (A) (A) (A) (A) (A) (A) (A) (A) (A) (A)
                 (A) (A) (A) (A) (A) (A) (A) (A)
       Virtual   (A) (A) (A) (A) (A) (A) (A) (A) (A) (A) (A) (A)
                 (A) (A) (A) (A) (A) (A) (A) (A) (A) (A) (A) (A)
                 (A) (A) (A) (A) (A) (A) (A) (A) (A) (A) (A) (A)
                 (A) (A) (A) (A) (A) (A) (A) (A) (A) (A) (A) (A)
                 (A) (A) (A) (A) (A) (A) (A) (A) (A) (A) (A) (A)
                 (A) (A) (A) (A) (A) (A) (A) (A) (A) (A) (A) (A)
                 (A) (A) (A) (A) (A) (A) (A) (A) (A) (A) (A) (A)
                 (A) (A) (A) (A) (A) (A) (A) (A) (A) (A) (A) (A)
                 (A) (A) (A) (A) (A) (A) (A) (A) (A) (A) (A) (A)
                 (A) (A) (A) (A) (A) (A) (A) (A) (A) (A) (A) (A)
                 (A) (A) (A) (A) (A) (A) (A) (A) (A) (A) (A) (A)
                 (A) (A) (A) (A) (A) (A) (A) (A) (A) (A) (A) (A)
                 (A) (A) (A) (A) (A) (A) (A) (A) (A) (A) (A) (A)
                 (A) (A) (A) (A) (A) (A) (A) (A) (A) (A) (A) (A)
                 (A) (A) (A) (A) (A) (A) (A) (A) (A) (A) (A) (A)
                 (A) (A) (A) (A) (A) (A) (A) (A) (A) (A) (A) (A)
                 (A) (A) (A) (A) (A) (A) (A) (A) (A) (A) (A) (A)
                 (A) (A) (A) (A) (A) (A) (A) (A) (A) (A) (A) (A)
                 (A) (A) (A) (A) (A) (A) (A) (A) (A) (A) (A) (A)
                 (A) (A) (A) (A) (A) (A) (A) (A) (A) (A) (A) (A)
                 (A) (A) (A) (A) (A) (A) (A) (A) (A) (A) (A) (A)
                 (A) (A) (A) (A) (A) (A) (A) (A) (A) (A) (A) (A)
                 (A)
 The electronic state of the initial guess is 1-A.
 Requested convergence on RMS density matrix=1.00D-08 within 128 cycles.
 Requested convergence on MAX density matrix=1.00D-06.
 Requested convergence on             energy=1.00D-06.
 No special actions if energy rises.
 Error on total polarization charges =  0.00928
 SCF Done:  E(RmPW1PW91) =  -468.280917730     A.U. after   12 cycles
             Convg  =    0.6107D-08             -V/T =  2.0099
 Range of M.O.s used for correlation:     1   309
 NBasis=   309 NAE=    44 NBE=    44 NFC=     0 NFV=     0
 NROrb=    309 NOA=    44 NOB=    44 NVA=   265 NVB=   265

 **** Warning!!: The largest alpha MO coefficient is  0.82900547D+02

 NEqPCM:  Using equilibrium solvation (IEInf=0, Eps=   2.2706, EpsInf=   2.2533)
          Differentiating once with respect to magnetic field using GIAOs.
          Electric field/nuclear overlap derivatives assumed to be zero.
 FoFCou: FMM=F IPFlag=           0 FMFlag=    10101102 FMFlg1=           0
         NFxFlg=    40000000 DoJE=F BraDBF=F KetDBF=T FulRan=T
         Omega=  0.000000  0.000000  1.000000  0.000000  0.000000 ICntrl=    6100 IOpCl=  0
         NMat0=    1 NMatS0=    1 NMatT0=    0 NMatD0=    1 NMtDS0=    0 NMtDT0=    0
         I1Cent=           7 NGrid=        1944.
 Symmetry not used in FoFCou.
          There are     3 degrees of freedom in the 1st order CPHF.  IDoFFX=0.
      3 vectors produced by pass  0 Test12= 3.89D-13 3.33D-08 XBig12= 3.33D+01 1.03D+00.
 AX will form     3 AO Fock derivatives at one time.
      3 vectors produced by pass  1 Test12= 3.89D-13 3.33D-08 XBig12= 6.91D-02 3.76D-02.
      3 vectors produced by pass  2 Test12= 3.89D-13 3.33D-08 XBig12= 1.37D-04 2.36D-03.
      3 vectors produced by pass  3 Test12= 3.89D-13 3.33D-08 XBig12= 6.41D-07 1.73D-04.
      3 vectors produced by pass  4 Test12= 3.89D-13 3.33D-08 XBig12= 2.20D-09 7.92D-06.
      3 vectors produced by pass  5 Test12= 3.89D-13 3.33D-08 XBig12= 4.13D-12 3.46D-07.
 Inverted reduced A of dimension    18 with in-core refinement.
 Calculating GIAO nuclear magnetic shielding tensors.
 SCF GIAO Magnetic shielding tensor (ppm):
      1  C    Isotropic =   166.5826   Anisotropy =    17.6529
   XX=   165.7022   YX=    -5.6713   ZX=     6.0362
   XY=    -7.9227   YY=   165.8851   ZY=    -3.3046
   XZ=    12.3594   YZ=     2.0775   ZZ=   168.1606
   Eigenvalues:   155.2969   166.0998   178.3512
      2  C    Isotropic =   125.7216   Anisotropy =    53.6212
   XX=   120.9737   YX=   -16.8661   ZX=    -9.7810
   XY=   -18.7446   YY=   119.3823   ZY=    24.7363
   XZ=   -10.6462   YZ=    21.2933   ZZ=   136.8090
   Eigenvalues:    98.6041   117.0917   161.4691
      3  C    Isotropic =   171.7630   Anisotropy =    22.9378
   XX=   181.8680   YX=     5.5489   ZX=     6.0135
   XY=     9.9397   YY=   167.2277   ZY=     2.9495
   XZ=     3.9899   YZ=     5.1405   ZZ=   166.1934
   Eigenvalues:   162.4366   165.7975   187.0549
      4  C    Isotropic =   147.1121   Anisotropy =    28.8349
   XX=   150.9453   YX=    -9.8188   ZX=    -4.7335
   XY=   -14.0528   YY=   142.9606   ZY=    19.8521
   XZ=     2.2758   YZ=    10.8310   ZZ=   147.4305
   Eigenvalues:   126.6284   148.3725   166.3354
      5  C    Isotropic =   165.9193   Anisotropy =    24.0408
   XX=   169.3268   YX=    -4.7215   ZX=    11.4620
   XY=    -9.6123   YY=   164.3817   ZY=    -7.0448
   XZ=     7.0355   YZ=    -6.9487   ZZ=   164.0493
   Eigenvalues:   156.5123   159.2990   181.9464
      6  C    Isotropic =   158.2793   Anisotropy =    23.3808
   XX=   160.8707   YX=    15.5418   ZX=     6.5228
   XY=     8.2554   YY=   162.3567   ZY=     5.7714
   XZ=    -5.3775   YZ=     0.5798   ZZ=   151.6105
   Eigenvalues:   148.5687   152.4027   173.8665
      7  C    Isotropic =   172.6189   Anisotropy =    38.6173
   XX=   182.0773   YX=    10.3186   ZX=    13.6590
   XY=    13.1310   YY=   166.8610   ZY=     5.6529
   XZ=    19.1506   YZ=     5.2518   ZZ=   168.9185
   Eigenvalues:   157.0310   162.4620   198.3638
      8  O    Isotropic =   279.5340   Anisotropy =    35.9406
   XX=   271.6108   YX=    -5.9193   ZX=    15.8330
   XY=   -11.2964   YY=   290.2061   ZY=    17.9460
   XZ=    14.6976   YZ=    19.4660   ZZ=   276.7849
   Eigenvalues:   249.7050   285.4025   303.4943
      9  C    Isotropic =   166.4058   Anisotropy =    14.1164
   XX=   170.2211   YX=    -7.8016   ZX=    -4.3156
   XY=    -5.6671   YY=   165.1378   ZY=    -2.2272
   XZ=    -6.7718   YZ=    -2.9572   ZZ=   163.8585
   Eigenvalues:   156.4367   166.9641   175.8167
     10  C    Isotropic =   174.4579   Anisotropy =    30.6809
   XX=   172.8414   YX=   -16.3589   ZX=     5.4531
   XY=   -10.7035   YY=   180.2376   ZY=    -8.8886
   XZ=     2.0308   YZ=   -11.2593   ZZ=   170.2946
   Eigenvalues:   160.8423   167.6195   194.9118
     11  C    Isotropic =   174.2126   Anisotropy =    33.5736
   XX=   174.7409   YX=    15.5699   ZX=   -12.1068
   XY=    10.6953   YY=   179.2561   ZY=   -10.0990
   XZ=   -10.0153   YZ=    -5.6729   ZZ=   168.6408
   Eigenvalues:   159.9147   166.1281   196.5950
     12  H    Isotropic =    30.0844   Anisotropy =     6.2832
   XX=    32.1944   YX=    -0.6811   ZX=    -2.5264
   XY=    -0.1802   YY=    28.4041   ZY=     3.1126
   XZ=    -2.0633   YZ=     2.8798   ZZ=    29.6548
   Eigenvalues:    25.7541    30.2260    34.2732
     13  H    Isotropic =    27.6083   Anisotropy =     5.9880
   XX=    28.6050   YX=     0.6875   ZX=    -3.2569
   XY=    -0.2523   YY=    28.0784   ZY=    -0.5427
   XZ=    -4.2167   YZ=    -2.2577   ZZ=    26.1414
   Eigenvalues:    23.2242    28.0003    31.6003
     14  H    Isotropic =    30.1964   Anisotropy =     8.0115
   XX=    27.5684   YX=     0.3702   ZX=    -1.6143
   XY=    -0.0286   YY=    28.1669   ZY=     0.9098
   XZ=    -2.3308   YZ=     1.5736   ZZ=    34.8538
   Eigenvalues:    26.8734    28.1783    35.5374
     15  H    Isotropic =    29.8341   Anisotropy =     8.4213
   XX=    31.3003   YX=    -2.6635   ZX=     1.7156
   XY=    -2.6448   YY=    28.3934   ZY=    -3.7450
   XZ=     1.5082   YZ=    -4.5565   ZZ=    29.8085
   Eigenvalues:    24.7151    29.3389    35.4483
     16  H    Isotropic =    30.4182   Anisotropy =     5.8958
   XX=    31.8619   YX=     1.9378   ZX=     0.8021
   XY=     2.1487   YY=    29.5538   ZY=     2.2241
   XZ=     1.3399   YZ=     3.1198   ZZ=    29.8391
   Eigenvalues:    26.8852    30.0207    34.3488
     17  H    Isotropic =    30.3499   Anisotropy =     9.7340
   XX=    30.2586   YX=     3.4051   ZX=    -0.5891
   XY=     4.0809   YY=    31.5674   ZY=    -4.5769
   XZ=    -0.5498   YZ=    -4.5282   ZZ=    29.2238
   Eigenvalues:    24.9017    29.3088    36.8393
     18  H    Isotropic =    30.5185   Anisotropy =     5.1107
   XX=    31.6052   YX=    -0.2187   ZX=     0.2640
   XY=    -0.6691   YY=    32.1019   ZY=     3.5284
   XZ=    -0.0240   YZ=     3.0157   ZZ=    27.8484
   Eigenvalues:    26.0545    31.5754    33.9257
     19  H    Isotropic =    29.9467   Anisotropy =     8.6175
   XX=    29.3283   YX=    -1.7644   ZX=     2.5346
   XY=    -1.2015   YY=    32.2013   ZY=    -3.6667
   XZ=     3.3597   YZ=    -3.6591   ZZ=    28.3107
   Eigenvalues:    25.1719    28.9766    35.6918
     20  H    Isotropic =    30.2630   Anisotropy =     4.9335
   XX=    30.8201   YX=     0.4023   ZX=     0.0243
   XY=     0.1914   YY=    26.5822   ZY=     1.0837
   XZ=    -0.3784   YZ=     1.0202   ZZ=    33.3868
   Eigenvalues:    26.4001    30.8370    33.5520
     21  H    Isotropic =    30.6323   Anisotropy =    10.8734
   XX=    34.5619   YX=    -2.7962   ZX=     4.5480
   XY=    -1.8870   YY=    28.8803   ZY=    -0.9697
   XZ=     4.6318   YZ=    -2.0698   ZZ=    28.4548
   Eigenvalues:    25.9708    28.0449    37.8813
     22  H    Isotropic =    30.9578   Anisotropy =     8.1375
   XX=    29.6769   YX=     0.9791   ZX=     1.2613
   XY=     0.4210   YY=    29.9367   ZY=     4.3274
   XZ=     0.4906   YZ=     4.2472   ZZ=    33.2597
   Eigenvalues:    26.9975    29.4931    36.3827
     23  H    Isotropic =    30.5495   Anisotropy =    10.7052
   XX=    33.7877   YX=     5.4246   ZX=    -1.1293
   XY=     5.0411   YY=    30.1031   ZY=    -2.0216
   XZ=    -0.2270   YZ=    -0.8428   ZZ=    27.7576
   Eigenvalues:    26.0148    27.9473    37.6862
     24  H    Isotropic =    29.9374   Anisotropy =    12.6746
   XX=    28.6089   YX=     2.0939   ZX=    -8.0966
   XY=     2.5601   YY=    29.9266   ZY=    -0.5883
   XZ=    -7.7091   YZ=    -0.4335   ZZ=    31.2766
   Eigenvalues:    21.6676    29.7573    38.3871
     25  H    Isotropic =    29.8834   Anisotropy =     5.5911
   XX=    32.1830   YX=     0.8497   ZX=     1.3461
   XY=     1.0870   YY=    27.3829   ZY=     1.9836
   XZ=     1.8469   YZ=     2.0801   ZZ=    30.0843
   Eigenvalues:    26.2918    29.7476    33.6108
     26  H    Isotropic =    30.9950   Anisotropy =     8.9208
   XX=    32.8232   YX=    -0.9814   ZX=     4.2718
   XY=    -1.5408   YY=    28.0116   ZY=    -0.8625
   XZ=     4.2360   YZ=    -0.2242   ZZ=    32.1503
   Eigenvalues:    27.5281    28.5148    36.9422
     27  H    Isotropic =    30.2622   Anisotropy =     8.2783
   XX=    30.0046   YX=    -0.6398   ZX=    -1.3294
   XY=     0.3651   YY=    34.6831   ZY=    -3.1877
   XZ=    -2.0736   YZ=    -3.2338   ZZ=    26.0988
   Eigenvalues:    24.5276    30.4778    35.7811
     28  H    Isotropic =    30.7584   Anisotropy =    10.4493
   XX=    31.9702   YX=    -4.4188   ZX=    -3.6745
   XY=    -4.9723   YY=    31.2890   ZY=     1.8832
   XZ=    -2.8120   YZ=     1.2896   ZZ=    29.0159
   Eigenvalues:    26.2357    28.3149    37.7245
     29  H    Isotropic =    30.9500   Anisotropy =     8.8272
   XX=    33.3768   YX=     4.1232   ZX=     1.6861
   XY=     4.1795   YY=    30.7344   ZY=     1.7335
   XZ=     0.8567   YZ=     1.0510   ZZ=    28.7388
   Eigenvalues:    27.5299    28.4853    36.8348
     30  H    Isotropic =    30.2752   Anisotropy =     8.7014
   XX=    29.7925   YX=    -0.3182   ZX=    -1.6078
   XY=    -1.8196   YY=    31.3995   ZY=    -5.4658
   XZ=    -1.2580   YZ=    -5.5076   ZZ=    29.6334
   Eigenvalues:    24.3719    30.3775    36.0761
     31  H    Isotropic =    30.7105   Anisotropy =    10.6235
   XX=    32.0005   YX=    -1.2578   ZX=    -5.7031
   XY=    -0.1454   YY=    28.2298   ZY=     0.0745
   XZ=    -5.8532   YZ=     0.7251   ZZ=    31.9011
   Eigenvalues:    26.1506    28.1880    37.7928
 End of Minotr Frequency-dependent properties file   721 does not exist.
 End of Minotr Frequency-dependent properties file   722 does not exist.

 **********************************************************************

            Population analysis using the SCF density.

 **********************************************************************

 Orbital symmetries:
       Occupied  (A) (A) (A) (A) (A) (A) (A) (A) (A) (A) (A) (A)
                 (A) (A) (A) (A) (A) (A) (A) (A) (A) (A) (A) (A)
                 (A) (A) (A) (A) (A) (A) (A) (A) (A) (A) (A) (A)
                 (A) (A) (A) (A) (A) (A) (A) (A)
       Virtual   (A) (A) (A) (A) (A) (A) (A) (A) (A) (A) (A) (A)
                 (A) (A) (A) (A) (A) (A) (A) (A) (A) (A) (A) (A)
                 (A) (A) (A) (A) (A) (A) (A) (A) (A) (A) (A) (A)
                 (A) (A) (A) (A) (A) (A) (A) (A) (A) (A) (A) (A)
                 (A) (A) (A) (A) (A) (A) (A) (A) (A) (A) (A) (A)
                 (A) (A) (A) (A) (A) (A) (A) (A) (A) (A) (A) (A)
                 (A) (A) (A) (A) (A) (A) (A) (A) (A) (A) (A) (A)
                 (A) (A) (A) (A) (A) (A) (A) (A) (A) (A) (A) (A)
                 (A) (A) (A) (A) (A) (A) (A) (A) (A) (A) (A) (A)
                 (A) (A) (A) (A) (A) (A) (A) (A) (A) (A) (A) (A)
                 (A) (A) (A) (A) (A) (A) (A) (A) (A) (A) (A) (A)
                 (A) (A) (A) (A) (A) (A) (A) (A) (A) (A) (A) (A)
                 (A) (A) (A) (A) (A) (A) (A) (A) (A) (A) (A) (A)
                 (A) (A) (A) (A) (A) (A) (A) (A) (A) (A) (A) (A)
                 (A) (A) (A) (A) (A) (A) (A) (A) (A) (A) (A) (A)
                 (A) (A) (A) (A) (A) (A) (A) (A) (A) (A) (A) (A)
                 (A) (A) (A) (A) (A) (A) (A) (A) (A) (A) (A) (A)
                 (A) (A) (A) (A) (A) (A) (A) (A) (A) (A) (A) (A)
                 (A) (A) (A) (A) (A) (A) (A) (A) (A) (A) (A) (A)
                 (A) (A) (A) (A) (A) (A) (A) (A) (A) (A) (A) (A)
                 (A) (A) (A) (A) (A) (A) (A) (A) (A) (A) (A) (A)
                 (A) (A) (A) (A) (A) (A) (A) (A) (A) (A) (A) (A)
                 (A)
 The electronic state is 1-A.
 Alpha  occ. eigenvalues --  -19.24421 -10.29359 -10.25516 -10.25497 -10.24877
 Alpha  occ. eigenvalues --  -10.24438 -10.24305 -10.24103 -10.23640 -10.23490
 Alpha  occ. eigenvalues --  -10.23425  -1.04943  -0.86206  -0.82329  -0.76995
 Alpha  occ. eigenvalues --   -0.75717  -0.70268  -0.69769  -0.63670  -0.62481
 Alpha  occ. eigenvalues --   -0.59157  -0.54900  -0.51910  -0.49127  -0.47321
 Alpha  occ. eigenvalues --   -0.46837  -0.44987  -0.43862  -0.42306  -0.42165
 Alpha  occ. eigenvalues --   -0.40329  -0.39965  -0.39296  -0.38274  -0.37993
 Alpha  occ. eigenvalues --   -0.37315  -0.35674  -0.34871  -0.34500  -0.33362
 Alpha  occ. eigenvalues --   -0.32259  -0.31407  -0.30121  -0.27790
 Alpha virt. eigenvalues --    0.00604   0.01572   0.02160   0.02437   0.03881
 Alpha virt. eigenvalues --    0.04247   0.04497   0.05062   0.05673   0.06555
 Alpha virt. eigenvalues --    0.07234   0.07351   0.07817   0.08336   0.09033
 Alpha virt. eigenvalues --    0.09631   0.09675   0.10855   0.10995   0.11186
 Alpha virt. eigenvalues --    0.11666   0.12385   0.13398   0.13746   0.14813
 Alpha virt. eigenvalues --    0.15240   0.15763   0.16368   0.17041   0.17558
 Alpha virt. eigenvalues --    0.17702   0.18145   0.18536   0.19447   0.19800
 Alpha virt. eigenvalues --    0.20268   0.20643   0.20878   0.21144   0.21885
 Alpha virt. eigenvalues --    0.22462   0.22823   0.23727   0.24003   0.24572
 Alpha virt. eigenvalues --    0.25129   0.25289   0.26145   0.26729   0.27367
 Alpha virt. eigenvalues --    0.27750   0.28701   0.29505   0.30183   0.30341
 Alpha virt. eigenvalues --    0.30889   0.31060   0.31838   0.32773   0.32869
 Alpha virt. eigenvalues --    0.33272   0.34591   0.35220   0.35935   0.36746
 Alpha virt. eigenvalues --    0.37859   0.38482   0.38926   0.39909   0.41150
 Alpha virt. eigenvalues --    0.41944   0.43333   0.44495   0.48329   0.54073
 Alpha virt. eigenvalues --    0.62959   0.64378   0.64853   0.65885   0.66759
 Alpha virt. eigenvalues --    0.67050   0.68688   0.69876   0.70313   0.71625
 Alpha virt. eigenvalues --    0.73593   0.74057   0.74960   0.75412   0.77170
 Alpha virt. eigenvalues --    0.78580   0.80439   0.81645   0.83261   0.84593
 Alpha virt. eigenvalues --    0.84693   0.88334   0.89506   0.90385   0.91886
 Alpha virt. eigenvalues --    0.93585   0.96299   0.99445   1.00177   1.00447
 Alpha virt. eigenvalues --    1.00590   1.01356   1.02182   1.03909   1.04442
 Alpha virt. eigenvalues --    1.05956   1.07048   1.08924   1.09988   1.10463
 Alpha virt. eigenvalues --    1.11537   1.12721   1.15228   1.15753   1.16241
 Alpha virt. eigenvalues --    1.17838   1.18205   1.19016   1.19865   1.20659
 Alpha virt. eigenvalues --    1.24794   1.25969   1.26900   1.27243   1.30618
 Alpha virt. eigenvalues --    1.35004   1.39331   1.41942   1.42840   1.45062
 Alpha virt. eigenvalues --    1.45762   1.48936   1.52540   1.55106   1.57854
 Alpha virt. eigenvalues --    1.59773   1.61670   1.64524   1.66008   1.66408
 Alpha virt. eigenvalues --    1.68226   1.69374   1.71590   1.74496   1.79433
 Alpha virt. eigenvalues --    1.81042   1.83208   1.85406   1.86615   1.88148
 Alpha virt. eigenvalues --    1.89735   1.90475   1.91205   1.91552   1.93946
 Alpha virt. eigenvalues --    1.95785   1.96868   2.00313   2.01204   2.02814
 Alpha virt. eigenvalues --    2.05157   2.05705   2.06595   2.07285   2.07868
 Alpha virt. eigenvalues --    2.09613   2.11339   2.13159   2.13997   2.14803
 Alpha virt. eigenvalues --    2.16219   2.17840   2.18183   2.18594   2.19567
 Alpha virt. eigenvalues --    2.20260   2.22839   2.23378   2.25175   2.29808
 Alpha virt. eigenvalues --    2.33132   2.33682   2.33756   2.34718   2.36510
 Alpha virt. eigenvalues --    2.38029   2.39632   2.40746   2.43416   2.45786
 Alpha virt. eigenvalues --    2.47569   2.48542   2.50419   2.54887   2.56388
 Alpha virt. eigenvalues --    2.58309   2.60126   2.61083   2.64698   2.65289
 Alpha virt. eigenvalues --    2.65872   2.68762   2.70772   2.71223   2.73534
 Alpha virt. eigenvalues --    2.74478   2.76165   2.76863   2.77876   2.79217
 Alpha virt. eigenvalues --    2.79695   2.81340   2.82260   2.83798   2.87265
 Alpha virt. eigenvalues --    2.87573   2.88660   2.89699   2.91079   2.92532
 Alpha virt. eigenvalues --    2.92695   2.93229   2.94678   2.98483   2.98564
 Alpha virt. eigenvalues --    3.01655   3.02708   3.05020   3.15128   3.28772
 Alpha virt. eigenvalues --    3.29550   3.30454   3.35032   3.37673   3.38905
 Alpha virt. eigenvalues --    3.40325   3.42648   3.47944   3.49032   3.50016
 Alpha virt. eigenvalues --    3.50969   3.53226   3.54317   3.55594   3.56330
 Alpha virt. eigenvalues --    3.58235   3.60945   3.62172   3.63837   4.33905
 Alpha virt. eigenvalues --    4.42057   4.42978   4.56053   4.58459   4.61425
 Alpha virt. eigenvalues --    4.63649   4.74252   4.82205   4.88536   4.94512
          Condensed to atoms (all electrons):
              1          2          3          4          5          6
     1  C    7.441930   0.122668   0.100820   0.101801  -0.220796  -0.331955
     2  C    0.122668   7.497821   0.335852  -1.513884  -0.074159  -0.340431
     3  C    0.100820   0.335852   6.022358  -0.646291   0.239994  -0.041415
     4  C    0.101801  -1.513884  -0.646291   8.466458  -0.403355  -0.052457
     5  C   -0.220796  -0.074159   0.239994  -0.403355   5.954837  -0.153016
     6  C   -0.331955  -0.340431  -0.041415  -0.052457  -0.153016   6.344378
     7  C   -1.154748  -0.571722  -0.216681   0.229890   0.148991   0.285379
     8  O   -0.020510   0.353119  -0.034879  -0.094909  -0.009961  -0.099774
     9  C   -0.051213   0.315551   0.276312  -0.846536   0.093626  -0.025013
    10  C    0.012224  -0.122412  -0.113181   0.306745  -0.003616  -0.009321
    11  C    0.020122  -0.095847  -0.042796   0.143427  -0.038234   0.031094
    12  H    0.197102  -0.076587  -0.072085   0.044210   0.028693   0.027581
    13  H    0.034585   0.251709  -0.007073   0.057334  -0.019653  -0.002017
    14  H    0.006041  -0.028485   0.301228   0.054623  -0.017668  -0.018184
    15  H    0.022145   0.004828   0.422448  -0.063242  -0.037740  -0.006744
    16  H   -0.005929   0.067498   0.033209   0.152911   0.020137   0.020644
    17  H   -0.009527   0.003931  -0.009233   0.040579   0.305338   0.032506
    18  H   -0.097229  -0.031567  -0.110073   0.063469   0.459955   0.009391
    19  H   -0.014196  -0.000256  -0.000691   0.037340   0.035376   0.306142
    20  H   -0.096198  -0.117626  -0.034594   0.074380   0.011209   0.430774
    21  H   -0.107877  -0.001944  -0.006074   0.004456   0.024444   0.005699
    22  H   -0.153421  -0.011798  -0.010185   0.008391   0.015659   0.010244
    23  H   -0.121018  -0.009662  -0.000667   0.004024  -0.001171   0.031369
    24  H    0.048825  -0.013498  -0.039176   0.049462  -0.015830  -0.042640
    25  H    0.006890   0.018551  -0.028995  -0.018105   0.004133  -0.001127
    26  H    0.001082   0.004305  -0.005136   0.002977  -0.000661  -0.000979
    27  H   -0.002275   0.000628  -0.022075  -0.000898   0.013490   0.000871
    28  H    0.000335  -0.001798  -0.003516   0.043827  -0.001886   0.000264
    29  H    0.000492   0.008801  -0.000460  -0.018145   0.000017   0.000073
    30  H   -0.000199  -0.035639   0.008312   0.007547  -0.000949   0.014971
    31  H    0.000388   0.006325  -0.004921   0.035183   0.000045  -0.003138
              7          8          9         10         11         12
     1  C   -1.154748  -0.020510  -0.051213   0.012224   0.020122   0.197102
     2  C   -0.571722   0.353119   0.315551  -0.122412  -0.095847  -0.076587
     3  C   -0.216681  -0.034879   0.276312  -0.113181  -0.042796  -0.072085
     4  C    0.229890  -0.094909  -0.846536   0.306745   0.143427   0.044210
     5  C    0.148991  -0.009961   0.093626  -0.003616  -0.038234   0.028693
     6  C    0.285379  -0.099774  -0.025013  -0.009321   0.031094   0.027581
     7  C    6.511884   0.040811  -0.035832   0.005637   0.015685   0.110737
     8  O    0.040811   8.162860  -0.001241  -0.001237   0.003245   0.004488
     9  C   -0.035832  -0.001241   6.704293  -0.177164  -0.176005  -0.002860
    10  C    0.005637  -0.001237  -0.177164   5.553381  -0.085923   0.000320
    11  C    0.015685   0.003245  -0.176005  -0.085923   5.548918   0.000253
    12  H    0.110737   0.004488  -0.002860   0.000320   0.000253   0.589739
    13  H    0.007441  -0.059453  -0.012138   0.006095   0.012297  -0.000084
    14  H    0.008741   0.000466  -0.001985   0.004820   0.000492   0.002684
    15  H   -0.002545   0.000338  -0.021668   0.012853  -0.001658   0.000005
    16  H    0.000135  -0.005554   0.042451  -0.034598  -0.014034  -0.000054
    17  H   -0.032013  -0.000097  -0.004089   0.000551   0.000757  -0.004871
    18  H    0.022935   0.000292  -0.008762  -0.001511   0.003764   0.005125
    19  H   -0.030606  -0.004796   0.001878   0.000946  -0.002843  -0.004620
    20  H    0.049852   0.009650  -0.023096   0.004521   0.000161   0.005179
    21  H    0.441767  -0.000086  -0.000640   0.000159  -0.000159  -0.003888
    22  H    0.490855   0.000074  -0.001586   0.000417   0.000092   0.004971
    23  H    0.456009   0.000027  -0.000135  -0.000159   0.000131  -0.003771
    24  H    0.018850   0.236200  -0.004726   0.000140   0.003071   0.001404
    25  H    0.002643  -0.000716   0.298292  -0.019828   0.007693  -0.000034
    26  H    0.000024  -0.000068  -0.100651   0.450781  -0.003664   0.000000
    27  H    0.000545  -0.000008  -0.057036   0.430874  -0.004132   0.000001
    28  H   -0.000059   0.000011  -0.127079   0.445081   0.002984   0.000000
    29  H    0.000019  -0.000133  -0.090581  -0.009305   0.458508   0.000000
    30  H    0.000276   0.000660  -0.061154   0.000428   0.424499   0.000001
    31  H    0.000079  -0.000033  -0.129307  -0.003119   0.457318   0.000000
             13         14         15         16         17         18
     1  C    0.034585   0.006041   0.022145  -0.005929  -0.009527  -0.097229
     2  C    0.251709  -0.028485   0.004828   0.067498   0.003931  -0.031567
     3  C   -0.007073   0.301228   0.422448   0.033209  -0.009233  -0.110073
     4  C    0.057334   0.054623  -0.063242   0.152911   0.040579   0.063469
     5  C   -0.019653  -0.017668  -0.037740   0.020137   0.305338   0.459955
     6  C   -0.002017  -0.018184  -0.006744   0.020644   0.032506   0.009391
     7  C    0.007441   0.008741  -0.002545   0.000135  -0.032013   0.022935
     8  O   -0.059453   0.000466   0.000338  -0.005554  -0.000097   0.000292
     9  C   -0.012138  -0.001985  -0.021668   0.042451  -0.004089  -0.008762
    10  C    0.006095   0.004820   0.012853  -0.034598   0.000551  -0.001511
    11  C    0.012297   0.000492  -0.001658  -0.014034   0.000757   0.003764
    12  H   -0.000084   0.002684   0.000005  -0.000054  -0.004871   0.005125
    13  H    0.596197  -0.000078  -0.000101  -0.004566   0.000013  -0.000049
    14  H   -0.000078   0.569970  -0.027412  -0.006278  -0.004341   0.004646
    15  H   -0.000101  -0.027412   0.544395  -0.002041  -0.002848  -0.003047
    16  H   -0.004566  -0.006278  -0.002041   0.559019  -0.000108  -0.000086
    17  H    0.000013  -0.004341  -0.002848  -0.000108   0.550705  -0.029071
    18  H   -0.000049   0.004646  -0.003047  -0.000086  -0.029071   0.544579
    19  H   -0.004650  -0.000027   0.000011  -0.000125  -0.000128  -0.000030
    20  H   -0.002812   0.000051  -0.000007  -0.000046  -0.000037   0.002564
    21  H   -0.000002   0.000000   0.000002   0.000000   0.000006   0.000004
    22  H   -0.000002   0.000000   0.000001   0.000000  -0.000173   0.003174
    23  H    0.000002  -0.000003  -0.000003   0.000000   0.002790  -0.000257
    24  H    0.007860   0.003355  -0.000173  -0.001466   0.000049   0.000012
    25  H   -0.000593  -0.000118   0.000129   0.005024   0.000009  -0.001373
    26  H   -0.000007  -0.000054   0.000168   0.003110   0.000001  -0.000010
    27  H    0.000001   0.000126  -0.000083  -0.000058  -0.000018   0.000800
    28  H   -0.000003  -0.000003   0.000077  -0.000054   0.000001  -0.000026
    29  H    0.000031  -0.000005   0.000004   0.003790   0.000000  -0.000002
    30  H    0.002225  -0.000001   0.000000  -0.000160   0.000000   0.000004
    31  H   -0.000053   0.000002  -0.000004   0.000017   0.000000   0.000002
             19         20         21         22         23         24
     1  C   -0.014196  -0.096198  -0.107877  -0.153421  -0.121018   0.048825
     2  C   -0.000256  -0.117626  -0.001944  -0.011798  -0.009662  -0.013498
     3  C   -0.000691  -0.034594  -0.006074  -0.010185  -0.000667  -0.039176
     4  C    0.037340   0.074380   0.004456   0.008391   0.004024   0.049462
     5  C    0.035376   0.011209   0.024444   0.015659  -0.001171  -0.015830
     6  C    0.306142   0.430774   0.005699   0.010244   0.031369  -0.042640
     7  C   -0.030606   0.049852   0.441767   0.490855   0.456009   0.018850
     8  O   -0.004796   0.009650  -0.000086   0.000074   0.000027   0.236200
     9  C    0.001878  -0.023096  -0.000640  -0.001586  -0.000135  -0.004726
    10  C    0.000946   0.004521   0.000159   0.000417  -0.000159   0.000140
    11  C   -0.002843   0.000161  -0.000159   0.000092   0.000131   0.003071
    12  H   -0.004620   0.005179  -0.003888   0.004971  -0.003771   0.001404
    13  H   -0.004650  -0.002812  -0.000002  -0.000002   0.000002   0.007860
    14  H   -0.000027   0.000051   0.000000   0.000000  -0.000003   0.003355
    15  H    0.000011  -0.000007   0.000002   0.000001  -0.000003  -0.000173
    16  H   -0.000125  -0.000046   0.000000   0.000000   0.000000  -0.001466
    17  H   -0.000128  -0.000037   0.000006  -0.000173   0.002790   0.000049
    18  H   -0.000030   0.002564   0.000004   0.003174  -0.000257   0.000012
    19  H    0.532994  -0.027176   0.002616  -0.000118  -0.000021  -0.000853
    20  H   -0.027176   0.547107  -0.000348   0.003276   0.000024  -0.000055
    21  H    0.002616  -0.000348   0.528822  -0.027719  -0.025238  -0.000004
    22  H   -0.000118   0.003276  -0.027719   0.532510  -0.027692   0.000001
    23  H   -0.000021   0.000024  -0.025238  -0.027692   0.531593   0.000009
    24  H   -0.000853  -0.000055  -0.000004   0.000001   0.000009   0.405656
    25  H   -0.000037  -0.000435   0.000000  -0.000029  -0.000001  -0.000010
    26  H    0.000000  -0.000001   0.000000   0.000000   0.000000   0.000000
    27  H    0.000000   0.000011   0.000000   0.000001   0.000000   0.000000
    28  H    0.000000  -0.000001   0.000000   0.000000   0.000000   0.000000
    29  H    0.000001  -0.000008   0.000000   0.000000   0.000000   0.000001
    30  H   -0.000007   0.000385   0.000000   0.000000   0.000000  -0.000007
    31  H    0.000000  -0.000018   0.000000   0.000000   0.000000   0.000000
             25         26         27         28         29         30
     1  C    0.006890   0.001082  -0.002275   0.000335   0.000492  -0.000199
     2  C    0.018551   0.004305   0.000628  -0.001798   0.008801  -0.035639
     3  C   -0.028995  -0.005136  -0.022075  -0.003516  -0.000460   0.008312
     4  C   -0.018105   0.002977  -0.000898   0.043827  -0.018145   0.007547
     5  C    0.004133  -0.000661   0.013490  -0.001886   0.000017  -0.000949
     6  C   -0.001127  -0.000979   0.000871   0.000264   0.000073   0.014971
     7  C    0.002643   0.000024   0.000545  -0.000059   0.000019   0.000276
     8  O   -0.000716  -0.000068  -0.000008   0.000011  -0.000133   0.000660
     9  C    0.298292  -0.100651  -0.057036  -0.127079  -0.090581  -0.061154
    10  C   -0.019828   0.450781   0.430874   0.445081  -0.009305   0.000428
    11  C    0.007693  -0.003664  -0.004132   0.002984   0.458508   0.424499
    12  H   -0.000034   0.000000   0.000001   0.000000   0.000000   0.000001
    13  H   -0.000593  -0.000007   0.000001  -0.000003   0.000031   0.002225
    14  H   -0.000118  -0.000054   0.000126  -0.000003  -0.000005  -0.000001
    15  H    0.000129   0.000168  -0.000083   0.000077   0.000004   0.000000
    16  H    0.005024   0.003110  -0.000058  -0.000054   0.003790  -0.000160
    17  H    0.000009   0.000001  -0.000018   0.000001   0.000000   0.000000
    18  H   -0.001373  -0.000010   0.000800  -0.000026  -0.000002   0.000004
    19  H   -0.000037   0.000000   0.000000   0.000000   0.000001  -0.000007
    20  H   -0.000435  -0.000001   0.000011  -0.000001  -0.000008   0.000385
    21  H    0.000000   0.000000   0.000000   0.000000   0.000000   0.000000
    22  H   -0.000029   0.000000   0.000001   0.000000   0.000000   0.000000
    23  H   -0.000001   0.000000   0.000000   0.000000   0.000000   0.000000
    24  H   -0.000010   0.000000   0.000000   0.000000   0.000001  -0.000007
    25  H    0.578478   0.004966  -0.004495  -0.002773   0.004913  -0.004267
    26  H    0.004966   0.526864  -0.028329  -0.027319   0.002751  -0.000037
    27  H   -0.004495  -0.028329   0.537167  -0.026070  -0.000019  -0.000139
    28  H   -0.002773  -0.027319  -0.026070   0.531104  -0.000140   0.000125
    29  H    0.004913   0.002751  -0.000019  -0.000140   0.524848  -0.028298
    30  H   -0.004267  -0.000037  -0.000139   0.000125  -0.028298   0.541359
    31  H   -0.003190  -0.000100   0.000118   0.003053  -0.027571  -0.026165
             31
     1  C    0.000388
     2  C    0.006325
     3  C   -0.004921
     4  C    0.035183
     5  C    0.000045
     6  C   -0.003138
     7  C    0.000079
     8  O   -0.000033
     9  C   -0.129307
    10  C   -0.003119
    11  C    0.457318
    12  H    0.000000
    13  H   -0.000053
    14  H    0.000002
    15  H   -0.000004
    16  H    0.000017
    17  H    0.000000
    18  H    0.000002
    19  H    0.000000
    20  H   -0.000018
    21  H    0.000000
    22  H    0.000000
    23  H    0.000000
    24  H    0.000000
    25  H   -0.003190
    26  H   -0.000100
    27  H    0.000118
    28  H    0.003053
    29  H   -0.027571
    30  H   -0.026165
    31  H    0.530688
 Mulliken atomic charges:
              1
     1  C    0.269643
     2  C    0.055726
     3  C   -0.290334
     4  C   -0.271209
     5  C   -0.357248
     6  C   -0.423167
     7  C   -0.804983
     8  O   -0.478786
     9  C    0.228094
    10  C   -0.654598
    11  C   -0.669216
    12  H    0.146360
    13  H    0.137545
    14  H    0.147396
    15  H    0.161914
    16  H    0.167214
    17  H    0.159322
    18  H    0.162379
    19  H    0.173877
    20  H    0.163316
    21  H    0.166007
    22  H    0.163061
    23  H    0.163823
    24  H    0.343547
    25  H    0.154406
    26  H    0.169988
    27  H    0.161002
    28  H    0.163865
    29  H    0.170419
    30  H    0.156233
    31  H    0.164400
 Sum of Mulliken atomic charges =   0.00000
 Mulliken charges with hydrogens summed into heavy atoms:
              1
     1  C    0.416004
     2  C    0.193272
     3  C    0.018976
     4  C   -0.103995
     5  C   -0.035547
     6  C   -0.085974
     7  C   -0.312092
     8  O   -0.135239
     9  C    0.382501
    10  C   -0.159742
    11  C   -0.178164
 Sum of Mulliken charges with hydrogens summed into heavy atoms =   0.00000
 Electronic spatial extent (au):  <R**2>=           2059.8568
 Charge=              0.0000 electrons
 Dipole moment (field-independent basis, Debye):
    X=             -0.2589    Y=             -2.1844    Z=             -0.3192  Tot=              2.2227
 Quadrupole moment (field-independent basis, Debye-Ang):
   XX=            -70.2274   YY=            -79.9255   ZZ=            -70.3300
   XY=              0.4152   XZ=             -1.7630   YZ=             -2.3466
 Traceless Quadrupole moment (field-independent basis, Debye-Ang):
   XX=              3.2669   YY=             -6.4312   ZZ=              3.1643
   XY=              0.4152   XZ=             -1.7630   YZ=             -2.3466
 Octapole moment (field-independent basis, Debye-Ang**2):
  XXX=             -5.6738  YYY=            -15.9992  ZZZ=              7.3153  XYY=              2.1888
  XXY=              4.8665  XXZ=              5.1214  XZZ=             -3.6900  YZZ=              2.7215
  YYZ=             -7.4631  XYZ=              0.5921
 Hexadecapole moment (field-independent basis, Debye-Ang**3):
 XXXX=          -1694.4180 YYYY=           -780.3608 ZZZZ=           -443.0907 XXXY=            -12.8202
 XXXZ=            -11.6274 YYYX=             10.3546 YYYZ=            -22.7866 ZZZX=            -13.5071
 ZZZY=             14.0495 XXYY=           -400.5617 XXZZ=           -348.0635 YYZZ=           -192.7171
 XXYZ=              7.5375 YYXZ=             -4.5675 ZZXY=            -10.5054
 N-N= 6.958481892713D+02 E-N=-2.476753614311D+03  KE= 4.636911278206D+02
 1\1\GINC-COMPUTE-10-0\SP\RmPW1PW91\6-31+G(d,p)\C10H20O1\ASAROTTI.IQUIR
 \19-Sep-2024\0\\# mPW1PW91/6-31+G** nmr scrf=(pcm,solvent=benzene)\\co
 mment\\0,1\C,0,-2.042906,-0.284904,-0.076233\C,0,-0.075772,1.374889,-0
 .047467\C,0,-0.002832,-0.683759,1.397268\C,0,0.859411,0.30655,0.580111
 \C,0,-1.11715,-1.336322,0.563004\C,0,-1.215102,0.744493,-0.869071\C,0,
 -3.12727,-0.925194,-0.949747\O,0,-0.585967,2.265648,0.953313\C,0,1.796
 637,-0.378454,-0.459311\C,0,2.624941,-1.517281,0.163324\C,0,2.753029,0
 .634065,-1.116247\H,0,-2.554833,0.247893,0.743182\H,0,0.501866,2.03703
 1,-0.697371\H,0,-0.461914,-0.140018,2.237012\H,0,0.624936,-1.448437,1.
 864722\H,0,1.509743,0.84596,1.284147\H,0,-1.705732,-2.018155,1.191372\
 H,0,-0.676451,-1.955511,-0.232224\H,0,-1.86336,1.549344,-1.237564\H,0,
 -0.789849,0.251513,-1.755199\H,0,-3.799943,-0.1675,-1.369066\H,0,-2.67
 9857,-1.473521,-1.788967\H,0,-3.735563,-1.634283,-0.375281\H,0,-1.1562
 87,1.753963,1.546549\H,0,1.181985,-0.820785,-1.256514\H,0,3.202172,-1.
 159022,1.026037\H,0,2.004611,-2.353744,0.500285\H,0,3.33792,-1.915502,
 -0.568102\H,0,3.36921,1.135316,-0.358296\H,0,2.229481,1.409598,-1.6836
 44\H,0,3.431672,0.126184,-1.81137\\Version=EM64L-G09RevC.01\State=1-A\
 HF=-468.2809177\RMSD=6.107e-09\Dipole=-0.1018586,-0.8594092,-0.1255765
 \Quadrupole=2.4288572,-4.7814482,2.3525909,0.308723,-1.3107641,-1.7446
 267\PG=C01 [X(C10H20O1)]\\@


     "IF I COULD JUST GET IT ON PAPER"
 LIFE AND INK, THEY RUN OUT AT THE SAME TIME,
 OR SO SAID MY OLD FRIEND THE SQUID.
     -- JIMMY BUFFETT, 1981
 Job cpu time:  0 days  0 hours 38 minutes 26.6 seconds.
 File lengths (MBytes):  RWF=    122 Int=      0 D2E=      0 Chk=      7 Scr=      1
 Normal termination of Gaussian 09 at Thu Sep 19 08:49:48 2024.
