 Entering Gaussian System, Link 0=g09
 Input=/home/asarotti.iquir/SCF2/02_Mentol12_OptB_NMR_benzene.gjc
 Output=/home/asarotti.iquir/SCF2/02_Mentol12_OptB_NMR_benzene.log
 Initial command:
 /opt/ohpc/pub/apps/software/Gaussian/09/AMD64.SSE4a-enabled/g09/l1.exe /local/asarotti.iquir/Gau-1837536.inp -scrdir=/local/asarotti.iquir/
 Entering Link 1 = /opt/ohpc/pub/apps/software/Gaussian/09/AMD64.SSE4a-enabled/g09/l1.exe PID=   1837537.
  
 Copyright (c) 1988,1990,1992,1993,1995,1998,2003,2009,2011,
            Gaussian, Inc.  All Rights Reserved.
  
 This is part of the Gaussian(R) 09 program.  It is based on
 the Gaussian(R) 03 system (copyright 2003, Gaussian, Inc.),
 the Gaussian(R) 98 system (copyright 1998, Gaussian, Inc.),
 the Gaussian(R) 94 system (copyright 1995, Gaussian, Inc.),
 the Gaussian 92(TM) system (copyright 1992, Gaussian, Inc.),
 the Gaussian 90(TM) system (copyright 1990, Gaussian, Inc.),
 the Gaussian 88(TM) system (copyright 1988, Gaussian, Inc.),
 the Gaussian 86(TM) system (copyright 1986, Carnegie Mellon
 University), and the Gaussian 82(TM) system (copyright 1983,
 Carnegie Mellon University). Gaussian is a federally registered
 trademark of Gaussian, Inc.
  
 This software contains proprietary and confidential information,
 including trade secrets, belonging to Gaussian, Inc.
  
 This software is provided under written license and may be
 used, copied, transmitted, or stored only in accord with that
 written license.
  
 The following legend is applicable only to US Government
 contracts under FAR:
  
                    RESTRICTED RIGHTS LEGEND
  
 Use, reproduction and disclosure by the US Government is
 subject to restrictions as set forth in subparagraphs (a)
 and (c) of the Commercial Computer Software - Restricted
 Rights clause in FAR 52.227-19.
  
 Gaussian, Inc.
 340 Quinnipiac St., Bldg. 40, Wallingford CT 06492
  
  
 ---------------------------------------------------------------
 Warning -- This program may not be used in any manner that
 competes with the business of Gaussian, Inc. or will provide
 assistance to any competitor of Gaussian, Inc.  The licensee
 of this program is prohibited from giving any competitor of
 Gaussian, Inc. access to this program.  By using this program,
 the user acknowledges that Gaussian, Inc. is engaged in the
 business of creating and licensing software in the field of
 computational chemistry and represents and warrants to the
 licensee that it is not a competitor of Gaussian, Inc. and that
 it will not use this program in any manner prohibited above.
 ---------------------------------------------------------------
  

 Cite this work as:
 Gaussian 09, Revision C.01,
 M. J. Frisch, G. W. Trucks, H. B. Schlegel, G. E. Scuseria, 
 M. A. Robb, J. R. Cheeseman, G. Scalmani, V. Barone, B. Mennucci, 
 G. A. Petersson, H. Nakatsuji, M. Caricato, X. Li, H. P. Hratchian, 
 A. F. Izmaylov, J. Bloino, G. Zheng, J. L. Sonnenberg, M. Hada, 
 M. Ehara, K. Toyota, R. Fukuda, J. Hasegawa, M. Ishida, T. Nakajima, 
 Y. Honda, O. Kitao, H. Nakai, T. Vreven, J. A. Montgomery, Jr., 
 J. E. Peralta, F. Ogliaro, M. Bearpark, J. J. Heyd, E. Brothers, 
 K. N. Kudin, V. N. Staroverov, T. Keith, R. Kobayashi, J. Normand, 
 K. Raghavachari, A. Rendell, J. C. Burant, S. S. Iyengar, J. Tomasi, 
 M. Cossi, N. Rega, J. M. Millam, M. Klene, J. E. Knox, J. B. Cross, 
 V. Bakken, C. Adamo, J. Jaramillo, R. Gomperts, R. E. Stratmann, 
 O. Yazyev, A. J. Austin, R. Cammi, C. Pomelli, J. W. Ochterski, 
 R. L. Martin, K. Morokuma, V. G. Zakrzewski, G. A. Voth, 
 P. Salvador, J. J. Dannenberg, S. Dapprich, A. D. Daniels, 
 O. Farkas, J. B. Foresman, J. V. Ortiz, J. Cioslowski, 
 and D. J. Fox, Gaussian, Inc., Wallingford CT, 2010.
 
 ******************************************
 Gaussian 09:  AM64L-G09RevC.01 23-Sep-2011
                19-Sep-2024 
 ******************************************
 %nprocshared=4
 Will use up to    4 processors via shared memory.
 %mem=100mw
 --------------------------------------------------
 # mPW1PW91/6-31+G** nmr scrf=(pcm,solvent=benzene)
 --------------------------------------------------
 1/38=1/1;
 2/12=2,17=6,18=5,40=1/2;
 3/5=1,6=6,7=111,11=2,16=1,25=1,30=1,70=2201,72=12,74=-7/1,2,8,3;
 4//1;
 5/5=2,38=5,53=12/2;
 8/6=1,10=90,11=11/1;
 10/13=100,45=16/2;
 6/7=2,8=2,9=2,10=2,28=1/1;
 99/9=1/99;
 -------
 comment
 -------
 Charge =  0 Multiplicity = 1
 Symbolic Z-Matrix:
 6                    -2.04897  -0.05538   0.00313 
 6                     0.17558   1.14261  -0.45729 
 6                    -0.12044  -0.25614   1.65377 
 6                     0.89922   0.35761   0.66007 
 6                    -1.32894  -0.96043   1.01641 
 6                    -1.04388   0.42134  -1.05772 
 6                    -3.25597  -0.75203  -0.63363 
 8                    -0.23004   2.37898   0.15468 
 6                     2.02306  -0.61409   0.18689 
 6                     3.24904   0.15981  -0.3322 
 6                     1.63171  -1.69931  -0.83057 
 1                    -2.40546   0.83348   0.54323 
 1                     0.88799   1.36217  -1.26849 
 1                    -0.50318   0.56052   2.27855 
 1                     0.4023   -0.94415   2.33167 
 1                     1.43367   1.13305   1.22452 
 1                    -2.02901  -1.2631    1.80719 
 1                    -1.02185  -1.88689   0.51147 
 1                    -1.53845   1.10174  -1.76929 
 1                    -0.70612  -0.43792  -1.65136 
 1                    -3.77666  -0.09     -1.33663 
 1                    -2.94816  -1.64839  -1.18807 
 1                    -3.97973  -1.06588   0.12834 
 1                    -0.74744   2.87257  -0.50131 
 1                     2.34584  -1.13724   1.09974 
 1                     3.02927   0.69531  -1.26397 
 1                     3.59768   0.89707   0.40035 
 1                     4.07982  -0.52504  -0.54037 
 1                     1.3541   -1.26719  -1.79954 
 1                     0.79907  -2.31994  -0.48642 
 1                     2.48412  -2.36587  -1.01023 
 
                          Input orientation:                          
 ---------------------------------------------------------------------
 Center     Atomic      Atomic             Coordinates (Angstroms)
 Number     Number       Type             X           Y           Z
 ---------------------------------------------------------------------
      1          6           0       -2.048975   -0.055379    0.003127
      2          6           0        0.175575    1.142608   -0.457291
      3          6           0       -0.120438   -0.256142    1.653769
      4          6           0        0.899222    0.357607    0.660074
      5          6           0       -1.328935   -0.960432    1.016406
      6          6           0       -1.043876    0.421338   -1.057720
      7          6           0       -3.255967   -0.752030   -0.633627
      8          8           0       -0.230039    2.378982    0.154684
      9          6           0        2.023065   -0.614094    0.186891
     10          6           0        3.249039    0.159805   -0.332200
     11          6           0        1.631707   -1.699306   -0.830571
     12          1           0       -2.405460    0.833481    0.543229
     13          1           0        0.887992    1.362165   -1.268486
     14          1           0       -0.503179    0.560521    2.278551
     15          1           0        0.402304   -0.944149    2.331673
     16          1           0        1.433666    1.133048    1.224519
     17          1           0       -2.029008   -1.263095    1.807194
     18          1           0       -1.021845   -1.886894    0.511473
     19          1           0       -1.538445    1.101745   -1.769287
     20          1           0       -0.706121   -0.437920   -1.651364
     21          1           0       -3.776661   -0.090004   -1.336631
     22          1           0       -2.948155   -1.648389   -1.188074
     23          1           0       -3.979727   -1.065875    0.128338
     24          1           0       -0.747438    2.872568   -0.501313
     25          1           0        2.345840   -1.137241    1.099741
     26          1           0        3.029267    0.695310   -1.263968
     27          1           0        3.597677    0.897066    0.400345
     28          1           0        4.079820   -0.525040   -0.540366
     29          1           0        1.354102   -1.267189   -1.799543
     30          1           0        0.799067   -2.319936   -0.486423
     31          1           0        2.484119   -2.365874   -1.010230
 ---------------------------------------------------------------------
                    Distance matrix (angstroms):
                    1          2          3          4          5
     1  C    0.000000
     2  C    2.568225   0.000000
     3  C    2.546405   2.549647   0.000000
     4  C    3.048607   1.545444   1.550427   0.000000
     5  C    1.537632   2.976258   1.537115   2.613213   0.000000
     6  C    1.537166   1.538768   2.943449   2.594322   2.508495
     7  C    1.532191   3.923803   3.912752   4.491164   2.545485
     8  O    3.042632   1.437935   3.033669   2.369938   3.619644
     9  C    4.114297   2.629485   2.621920   1.559208   3.470439
    10  C    5.312975   3.229200   3.933251   2.558393   4.902195
    11  C    4.116427   3.214986   3.365216   2.643756   3.566884
    12  H    1.099483   2.785380   2.764399   3.340813   2.144977
    13  H    3.500315   1.101717   3.489330   2.174536   3.940806
    14  H    2.818931   2.878257   1.097170   2.151132   2.142004
    15  H    3.495827   3.490599   1.098256   2.176175   2.174254
    16  H    3.877234   2.100326   2.128225   1.097970   3.472454
    17  H    2.171091   3.971837   2.163362   3.537950   1.098660
    18  H    2.160523   3.398559   2.185572   2.958102   1.098906
    19  H    2.177390   2.158904   3.946126   3.521045   3.472255
    20  H    2.164933   2.168241   3.361543   2.924506   2.788891
    21  H    2.186561   4.232345   4.726316   5.104025   3.505109
    22  H    2.182926   4.252223   4.243867   4.716140   2.820442
    23  H    2.182793   4.742035   4.228087   5.110106   2.797585
    24  H    3.243660   1.961288   3.850498   3.222629   4.163352
    25  H    4.656972   3.511710   2.676903   2.126166   3.679970
    26  H    5.287495   2.999060   4.397623   2.890168   5.189943
    27  H    5.740175   3.536469   4.089663   2.764079   5.301069
    28  H    6.170745   4.246302   4.746441   3.512311   5.645152
    29  H    4.037206   2.999615   3.888682   2.982716   3.901584
    30  H    3.671406   3.518352   3.112098   2.914399   2.938561
    31  H    5.187892   4.236102   4.281539   3.566394   4.541134
                    6          7          8          9         10
     6  C    0.000000
     7  C    2.539684   0.000000
     8  O    2.442258   4.425032   0.000000
     9  C    3.468040   5.344198   3.746468   0.000000
    10  C    4.361639   6.575516   4.155212   1.539931   0.000000
    11  C    3.421618   4.982517   4.590126   1.538205   2.514047
    12  H    2.141684   2.149930   2.696664   4.672717   5.761386
    13  H    2.159095   4.695238   2.075891   2.704092   2.810132
    14  H    3.382666   4.216801   2.809309   3.483772   4.588653
    15  H    3.929882   4.713052   4.022728   2.708485   4.052016
    16  H    3.442871   5.385061   2.337694   2.115790   2.581890
    17  H    3.466343   2.779249   4.385408   4.412015   5.870216
    18  H    2.791198   2.755081   4.353384   3.316150   4.810531
    19  H    1.101762   2.770575   2.654228   4.410792   5.086499
    20  H    1.097641   2.763362   3.379852   3.295250   4.211978
    21  H    2.794168   1.097094   4.571481   6.019353   7.101531
    22  H    2.815500   1.098007   5.040920   5.260544   6.512089
    23  H    3.498251   1.096776   5.091944   6.020054   7.346390
    24  H    2.531006   4.409981   0.970392   4.506232   4.833168
    25  H    4.309754   5.876495   4.460057   1.100528   2.132733
    26  H    4.087553   6.480454   3.933243   2.198175   1.096931
    27  H    4.888383   7.124679   4.111914   2.192845   1.096232
    28  H    5.235986   7.339891   5.243217   2.183363   1.096605
    29  H    3.025182   4.783041   4.429793   2.195442   2.789300
    30  H    3.352223   4.350092   4.852825   2.204863   3.489307
    31  H    4.496394   5.974522   5.589037   2.171268   2.724680
                   11         12         13         14         15
    11  C    0.000000
    12  H    4.959945   0.000000
    13  H    3.180800   3.795872   0.000000
    14  H    4.396726   2.589309   3.893515   0.000000
    15  H    3.475842   3.773863   4.303036   1.756916   0.000000
    16  H    3.504974   3.910599   2.562290   2.278188   2.569873
    17  H    4.533091   2.476884   4.986049   2.424027   2.507605
    18  H    2.979532   3.052186   4.167987   3.062910   2.496016
    19  H    4.333236   2.484232   2.491228   4.213038   4.976953
    20  H    2.780330   3.052942   2.434769   4.059840   4.165268
    21  H    5.665368   2.503376   4.885942   4.920204   5.625813
    22  H    4.594076   3.074347   4.877082   4.782748   4.910209
    23  H    5.727908   2.501600   5.616154   4.399428   4.906292
    24  H    5.164375   2.828070   2.354677   3.623930   4.890301
    25  H    2.133543   5.173809   3.739098   3.519787   2.309172
    26  H    2.806277   5.728989   2.242716   5.004576   4.745250
    27  H    3.481571   6.005174   3.216163   4.523045   4.162993
    28  H    2.730637   6.714061   3.778818   5.488954   4.684910
    29  H    1.096675   4.902622   2.722643   4.839511   4.251731
    30  H    1.094033   4.612290   3.765289   4.199757   3.160993
    31  H    1.096903   6.046246   4.063569   5.320133   4.186116
                   16         17         18         19         20
    16  H    0.000000
    17  H    4.251014   0.000000
    18  H    3.957021   1.755675   0.000000
    19  H    4.218684   4.315592   3.794826   0.000000
    20  H    3.913736   3.793754   2.622417   1.754206   0.000000
    21  H    5.933199   3.783394   3.772706   2.572366   3.106174
    22  H    5.723404   3.156725   2.579925   3.144571   2.589708
    23  H    5.944888   2.581232   3.093530   3.776164   3.778646
    24  H    3.280494   4.906662   4.873758   2.317167   3.504805
    25  H    2.449866   4.433466   3.499906   5.322786   4.167984
    26  H    2.988331   6.233260   5.121667   4.613516   3.922679
    27  H    2.327637   6.189112   5.394698   5.579332   4.951199
    28  H    3.586949   6.585859   5.384050   5.976753   4.913974
    29  H    3.861660   4.945099   3.371936   3.738929   2.225795
    30  H    3.905526   3.791517   2.121095   4.337926   2.676689
    31  H    4.282524   5.433444   3.851855   5.364846   3.782286
                   21         22         23         24         25
    21  H    0.000000
    22  H    1.771173   0.000000
    23  H    1.771918   1.770990   0.000000
    24  H    4.318655   5.074825   5.133759   0.000000
    25  H    6.672154   5.789797   6.400118   5.311338   0.000000
    26  H    6.851471   6.420924   7.359775   4.425562   3.067969
    27  H    7.640174   7.200718   7.832252   4.857532   2.488907
    28  H    7.908703   7.146599   8.105305   5.903193   2.464027
    29  H    5.284390   4.362181   5.675120   4.820732   3.066966
    30  H    5.160692   3.871041   4.978702   5.417933   2.511412
    31  H    6.669594   5.482337   6.690862   6.176021   2.445534
                   26         27         28         29         30
    26  H    0.000000
    27  H    1.770235   0.000000
    28  H    1.765366   1.771944   0.000000
    29  H    2.635227   3.815381   3.092871   0.000000
    30  H    3.830154   4.355190   3.740040   1.772181   0.000000
    31  H    3.119682   3.725119   2.481069   1.762686   1.765187
                   31
    31  H    0.000000
 Stoichiometry    C10H20O
 Framework group  C1[X(C10H20O)]
 Deg. of freedom    87
 Full point group                 C1      NOp   1
 Largest Abelian subgroup         C1      NOp   1
 Largest concise Abelian subgroup C1      NOp   1
                         Standard orientation:                         
 ---------------------------------------------------------------------
 Center     Atomic      Atomic             Coordinates (Angstroms)
 Number     Number       Type             X           Y           Z
 ---------------------------------------------------------------------
      1          6           0       -2.048975   -0.055379    0.003127
      2          6           0        0.175575    1.142608   -0.457291
      3          6           0       -0.120438   -0.256142    1.653769
      4          6           0        0.899222    0.357607    0.660074
      5          6           0       -1.328935   -0.960432    1.016406
      6          6           0       -1.043876    0.421338   -1.057720
      7          6           0       -3.255967   -0.752030   -0.633627
      8          8           0       -0.230039    2.378982    0.154684
      9          6           0        2.023065   -0.614094    0.186891
     10          6           0        3.249039    0.159805   -0.332200
     11          6           0        1.631707   -1.699306   -0.830571
     12          1           0       -2.405460    0.833481    0.543229
     13          1           0        0.887992    1.362165   -1.268486
     14          1           0       -0.503179    0.560521    2.278551
     15          1           0        0.402304   -0.944149    2.331673
     16          1           0        1.433666    1.133048    1.224519
     17          1           0       -2.029008   -1.263095    1.807194
     18          1           0       -1.021845   -1.886894    0.511473
     19          1           0       -1.538445    1.101745   -1.769287
     20          1           0       -0.706121   -0.437920   -1.651364
     21          1           0       -3.776661   -0.090004   -1.336631
     22          1           0       -2.948155   -1.648389   -1.188074
     23          1           0       -3.979727   -1.065875    0.128338
     24          1           0       -0.747438    2.872568   -0.501313
     25          1           0        2.345840   -1.137241    1.099741
     26          1           0        3.029267    0.695310   -1.263968
     27          1           0        3.597677    0.897066    0.400345
     28          1           0        4.079820   -0.525040   -0.540366
     29          1           0        1.354102   -1.267189   -1.799543
     30          1           0        0.799067   -2.319936   -0.486423
     31          1           0        2.484119   -2.365874   -1.010230
 ---------------------------------------------------------------------
 Rotational constants (GHZ):      1.5609881      0.7688016      0.6754816
 Standard basis: 6-31+G(d,p) (6D, 7F)
 There are   309 symmetry adapted basis functions of A   symmetry.
 Integral buffers will be    131072 words long.
 Raffenetti 2 integral format.
 Two-electron integral symmetry is turned on.
   309 basis functions,   492 primitive gaussians,   309 cartesian basis functions
    44 alpha electrons       44 beta electrons
       nuclear repulsion energy       697.2564720281 Hartrees.
 NAtoms=   31 NActive=   31 NUniq=   31 SFac= 1.00D+00 NAtFMM=   60 NAOKFM=F Big=F
 ------------------------------------------------------------------------------
 Polarizable Continuum Model (PCM)
 =================================
 Model                : PCM.
 Atomic radii         : UFF (Universal Force Field).
 Polarization charges : Total charges.
 Charge compensation  : None.
 Solution method      : Matrix inversion.
 Cavity type          : Scaled VdW (van der Waals Surface) (Alpha=1.100).
 Cavity algorithm     : GePol (No added spheres)
                        Default sphere list used, NSphG=   31.
                        Lebedev-Laikov grids with approx.  5.0 points / Ang**2.
                        Smoothing algorithm: Karplus/York (Gamma=1.0000).
                        Polarization charges: spherical gaussians, with
                                              point-specific exponents (IZeta= 3).
                        Self-potential: point-specific (ISelfS= 7).
                        Self-field    : sphere-specific E.n sum rule (ISelfD= 2).
 Solvent              : Benzene, Eps=   2.270600 Eps(inf)=   2.253301
 ------------------------------------------------------------------------------
 One-electron integrals computed using PRISM.
 NBasis=   309 RedAO= T  NBF=   309
 NBsUse=   309 1.00D-06 NBFU=   309
 Harris functional with IExCor=  908 diagonalized for initial guess.
 ExpMin= 4.38D-02 ExpMax= 5.48D+03 ExpMxC= 8.25D+02 IAcc=2 IRadAn=         4 AccDes= 0.00D+00
 HarFok:  IExCor=  908 AccDes= 0.00D+00 IRadAn=         4 IDoV= 1
 ScaDFX=  1.000000  1.000000  1.000000  1.000000
 FoFCou: FMM=F IPFlag=           0 FMFlag=      100000 FMFlg1=           0
         NFxFlg=           0 DoJE=T BraDBF=F KetDBF=T FulRan=T
         Omega=  0.000000  0.000000  1.000000  0.000000  0.000000 ICntrl=     500 IOpCl=  0
         NMat0=    1 NMatS0=    1 NMatT0=    0 NMatD0=    1 NMtDS0=    0 NMtDT0=    0
         I1Cent=           4 NGrid=           0.
 Petite list used in FoFCou.
 Initial guess orbital symmetries:
       Occupied  (A) (A) (A) (A) (A) (A) (A) (A) (A) (A) (A) (A)
                 (A) (A) (A) (A) (A) (A) (A) (A) (A) (A) (A) (A)
                 (A) (A) (A) (A) (A) (A) (A) (A) (A) (A) (A) (A)
                 (A) (A) (A) (A) (A) (A) (A) (A)
       Virtual   (A) (A) (A) (A) (A) (A) (A) (A) (A) (A) (A) (A)
                 (A) (A) (A) (A) (A) (A) (A) (A) (A) (A) (A) (A)
                 (A) (A) (A) (A) (A) (A) (A) (A) (A) (A) (A) (A)
                 (A) (A) (A) (A) (A) (A) (A) (A) (A) (A) (A) (A)
                 (A) (A) (A) (A) (A) (A) (A) (A) (A) (A) (A) (A)
                 (A) (A) (A) (A) (A) (A) (A) (A) (A) (A) (A) (A)
                 (A) (A) (A) (A) (A) (A) (A) (A) (A) (A) (A) (A)
                 (A) (A) (A) (A) (A) (A) (A) (A) (A) (A) (A) (A)
                 (A) (A) (A) (A) (A) (A) (A) (A) (A) (A) (A) (A)
                 (A) (A) (A) (A) (A) (A) (A) (A) (A) (A) (A) (A)
                 (A) (A) (A) (A) (A) (A) (A) (A) (A) (A) (A) (A)
                 (A) (A) (A) (A) (A) (A) (A) (A) (A) (A) (A) (A)
                 (A) (A) (A) (A) (A) (A) (A) (A) (A) (A) (A) (A)
                 (A) (A) (A) (A) (A) (A) (A) (A) (A) (A) (A) (A)
                 (A) (A) (A) (A) (A) (A) (A) (A) (A) (A) (A) (A)
                 (A) (A) (A) (A) (A) (A) (A) (A) (A) (A) (A) (A)
                 (A) (A) (A) (A) (A) (A) (A) (A) (A) (A) (A) (A)
                 (A) (A) (A) (A) (A) (A) (A) (A) (A) (A) (A) (A)
                 (A) (A) (A) (A) (A) (A) (A) (A) (A) (A) (A) (A)
                 (A) (A) (A) (A) (A) (A) (A) (A) (A) (A) (A) (A)
                 (A) (A) (A) (A) (A) (A) (A) (A) (A) (A) (A) (A)
                 (A) (A) (A) (A) (A) (A) (A) (A) (A) (A) (A) (A)
                 (A)
 The electronic state of the initial guess is 1-A.
 Requested convergence on RMS density matrix=1.00D-08 within 128 cycles.
 Requested convergence on MAX density matrix=1.00D-06.
 Requested convergence on             energy=1.00D-06.
 No special actions if energy rises.
 Error on total polarization charges =  0.00925
 SCF Done:  E(RmPW1PW91) =  -468.277088638     A.U. after   12 cycles
             Convg  =    0.8182D-08             -V/T =  2.0099
 Range of M.O.s used for correlation:     1   309
 NBasis=   309 NAE=    44 NBE=    44 NFC=     0 NFV=     0
 NROrb=    309 NOA=    44 NOB=    44 NVA=   265 NVB=   265

 **** Warning!!: The largest alpha MO coefficient is  0.72494633D+02

 NEqPCM:  Using equilibrium solvation (IEInf=0, Eps=   2.2706, EpsInf=   2.2533)
          Differentiating once with respect to magnetic field using GIAOs.
          Electric field/nuclear overlap derivatives assumed to be zero.
 FoFCou: FMM=F IPFlag=           0 FMFlag=    10101102 FMFlg1=           0
         NFxFlg=    40000000 DoJE=F BraDBF=F KetDBF=T FulRan=T
         Omega=  0.000000  0.000000  1.000000  0.000000  0.000000 ICntrl=    6100 IOpCl=  0
         NMat0=    1 NMatS0=    1 NMatT0=    0 NMatD0=    1 NMtDS0=    0 NMtDT0=    0
         I1Cent=           7 NGrid=        1920.
 Symmetry not used in FoFCou.
          There are     3 degrees of freedom in the 1st order CPHF.  IDoFFX=0.
      3 vectors produced by pass  0 Test12= 3.89D-13 3.33D-08 XBig12= 3.60D+01 1.03D+00.
 AX will form     3 AO Fock derivatives at one time.
      3 vectors produced by pass  1 Test12= 3.89D-13 3.33D-08 XBig12= 7.92D-02 5.13D-02.
      3 vectors produced by pass  2 Test12= 3.89D-13 3.33D-08 XBig12= 2.48D-04 3.27D-03.
      3 vectors produced by pass  3 Test12= 3.89D-13 3.33D-08 XBig12= 1.02D-06 1.86D-04.
      3 vectors produced by pass  4 Test12= 3.89D-13 3.33D-08 XBig12= 2.10D-09 8.39D-06.
      3 vectors produced by pass  5 Test12= 3.89D-13 3.33D-08 XBig12= 6.28D-12 4.23D-07.
 Inverted reduced A of dimension    18 with in-core refinement.
 Calculating GIAO nuclear magnetic shielding tensors.
 SCF GIAO Magnetic shielding tensor (ppm):
      1  C    Isotropic =   167.6830   Anisotropy =    13.3635
   XX=   165.0383   YX=    -1.2669   ZX=     4.5845
   XY=     1.5936   YY=   167.4083   ZY=    -0.7612
   XZ=    12.0431   YZ=     0.0090   ZZ=   170.6022
   Eigenvalues:   159.0385   167.4184   176.5920
      2  C    Isotropic =   127.1910   Anisotropy =    52.2001
   XX=   117.5074   YX=   -10.2361   ZX=    -2.1686
   XY=   -15.6941   YY=   149.6674   ZY=    20.2220
   XZ=    -4.3105   YZ=    18.1219   ZZ=   114.3983
   Eigenvalues:   105.4118   114.1702   161.9911
      3  C    Isotropic =   164.5806   Anisotropy =    17.8934
   XX=   175.3213   YX=     0.5544   ZX=     0.4805
   XY=     5.2458   YY=   155.4652   ZY=    -8.7587
   XZ=    -4.1535   YZ=    -6.7429   ZZ=   162.9553
   Eigenvalues:   150.5117   166.7206   176.5096
      4  C    Isotropic =   151.5446   Anisotropy =    23.5334
   XX=   150.9638   YX=    -8.4877   ZX=    -4.7086
   XY=   -12.5752   YY=   157.2616   ZY=    11.6788
   XZ=     4.6236   YZ=     4.4772   ZZ=   146.4083
   Eigenvalues:   139.0890   148.3112   167.2335
      5  C    Isotropic =   162.1633   Anisotropy =    18.7779
   XX=   164.0337   YX=    -0.7248   ZX=     8.6161
   XY=    -7.5509   YY=   158.1339   ZY=    -3.2172
   XZ=     8.6789   YZ=    -4.1834   ZZ=   164.3224
   Eigenvalues:   155.3994   156.4086   174.6819
      6  C    Isotropic =   152.6875   Anisotropy =    22.3186
   XX=   161.9347   YX=    13.7616   ZX=     3.1426
   XY=     3.4830   YY=   154.3495   ZY=     3.0106
   XZ=    -5.4816   YZ=     1.8663   ZZ=   141.7784
   Eigenvalues:   140.8594   149.6365   167.5666
      7  C    Isotropic =   172.5822   Anisotropy =    38.5809
   XX=   186.6397   YX=    11.1208   ZX=    11.0007
   XY=    16.3622   YY=   164.7501   ZY=     3.2478
   XZ=    14.6680   YZ=     1.6916   ZZ=   166.3568
   Eigenvalues:   156.2089   163.2349   198.3028
      8  O    Isotropic =   270.9634   Anisotropy =   108.1158
   XX=   255.7483   YX=   -37.2010   ZX=    57.3208
   XY=   -29.8204   YY=   301.2814   ZY=     0.6345
   XZ=    64.7005   YZ=   -25.5391   ZZ=   255.8606
   Eigenvalues:   192.5765   277.2731   343.0406
      9  C    Isotropic =   158.0753   Anisotropy =    22.1169
   XX=   165.1928   YX=    -9.1801   ZX=    -5.3759
   XY=   -11.4384   YY=   156.1218   ZY=    -2.9788
   XZ=    -8.5934   YZ=    -3.6815   ZZ=   152.9113
   Eigenvalues:   144.0943   157.3116   172.8199
     10  C    Isotropic =   171.6290   Anisotropy =    39.1272
   XX=   184.0122   YX=    17.4786   ZX=    -7.0590
   XY=    17.8733   YY=   172.6396   ZY=     5.8828
   XZ=   -14.5358   YZ=     5.2029   ZZ=   158.2352
   Eigenvalues:   147.8017   169.3715   197.7138
     11  C    Isotropic =   174.0105   Anisotropy =    21.6652
   XX=   173.3597   YX=     3.4117   ZX=    -0.3340
   XY=     8.4523   YY=   177.6175   ZY=     9.5047
   XZ=     3.5473   YZ=    13.4427   ZZ=   171.0542
   Eigenvalues:   161.8855   171.6920   188.4539
     12  H    Isotropic =    29.5873   Anisotropy =     6.3195
   XX=    30.9916   YX=    -1.5097   ZX=    -1.3768
   XY=    -1.2229   YY=    31.1317   ZY=     2.9821
   XZ=    -1.3468   YZ=     2.9122   ZZ=    26.6387
   Eigenvalues:    25.1101    29.8516    33.8003
     13  H    Isotropic =    27.4747   Anisotropy =     5.6499
   XX=    29.0249   YX=    -0.3604   ZX=    -2.9380
   XY=    -1.8070   YY=    26.8312   ZY=    -0.2756
   XZ=    -3.4240   YZ=    -1.5411   ZZ=    26.5680
   Eigenvalues:    23.7755    27.4073    31.2413
     14  H    Isotropic =    29.3023   Anisotropy =     8.3737
   XX=    27.4539   YX=     0.3831   ZX=    -2.2476
   XY=     0.1898   YY=    27.8783   ZY=     2.9887
   XZ=    -2.5606   YZ=     3.7448   ZZ=    32.5746
   Eigenvalues:    25.1328    27.8894    34.8848
     15  H    Isotropic =    30.2166   Anisotropy =     8.5595
   XX=    30.2386   YX=    -0.6816   ZX=     2.3971
   XY=    -0.6877   YY=    27.5044   ZY=    -3.4629
   XZ=     2.4412   YZ=    -4.0931   ZZ=    32.9069
   Eigenvalues:    25.5007    29.2262    35.9230
     16  H    Isotropic =    29.8696   Anisotropy =     5.6507
   XX=    31.3597   YX=     1.1719   ZX=     0.2837
   XY=     2.0926   YY=    30.2372   ZY=     2.9217
   XZ=     0.7317   YZ=     3.3613   ZZ=    28.0118
   Eigenvalues:    25.7386    30.2334    33.6367
     17  H    Isotropic =    30.1164   Anisotropy =     9.3456
   XX=    31.2788   YX=     2.7831   ZX=    -2.5387
   XY=     3.1526   YY=    26.9172   ZY=    -3.1386
   XZ=    -2.4947   YZ=    -3.4306   ZZ=    32.1533
   Eigenvalues:    24.8368    29.1657    36.3468
     18  H    Isotropic =    30.2764   Anisotropy =     5.3115
   XX=    30.8180   YX=    -0.1164   ZX=     0.2412
   XY=    -0.8566   YY=    33.5922   ZY=     1.2470
   XZ=    -0.1106   YZ=     0.8550   ZZ=    26.4191
   Eigenvalues:    26.2643    30.7475    33.8174
     19  H    Isotropic =    30.1929   Anisotropy =     7.4615
   XX=    29.4405   YX=    -0.3317   ZX=     2.1489
   XY=     0.6236   YY=    29.3736   ZY=    -3.9667
   XZ=     2.4246   YZ=    -3.7429   ZZ=    31.7647
   Eigenvalues:    25.8602    29.5513    35.1672
     20  H    Isotropic =    30.1660   Anisotropy =     4.6044
   XX=    31.1639   YX=    -1.1662   ZX=    -0.0518
   XY=    -1.4321   YY=    28.7291   ZY=     2.9081
   XZ=    -0.5388   YZ=     2.9042   ZZ=    30.6049
   Eigenvalues:    26.4448    30.8175    33.2356
     21  H    Isotropic =    30.7029   Anisotropy =    10.6825
   XX=    33.6399   YX=    -1.9746   ZX=     5.1220
   XY=    -1.1137   YY=    28.2991   ZY=    -1.6877
   XZ=     4.7194   YZ=    -2.8622   ZZ=    30.1696
   Eigenvalues:    26.1031    28.1809    37.8245
     22  H    Isotropic =    31.0017   Anisotropy =     8.0277
   XX=    30.0835   YX=     1.7470   ZX=     1.4694
   XY=     1.0201   YY=    33.0062   ZY=     4.0188
   XZ=     1.0469   YZ=     4.1017   ZZ=    29.9153
   Eigenvalues:    27.0922    29.5594    36.3535
     23  H    Isotropic =    30.5888   Anisotropy =    10.7149
   XX=    35.5580   YX=     3.3170   ZX=    -3.2444
   XY=     3.4482   YY=    27.3214   ZY=    -1.6761
   XZ=    -2.0900   YZ=    -0.7363   ZZ=    28.8871
   Eigenvalues:    26.0824    27.9520    37.7321
     24  H    Isotropic =    31.3444   Anisotropy =    17.7330
   XX=    28.0777   YX=    -6.2511   ZX=     6.4812
   XY=    -6.5717   YY=    35.8987   ZY=    -5.1230
   XZ=     5.0424   YZ=    -4.0610   ZZ=    30.0567
   Eigenvalues:    22.7675    28.0992    43.1664
     25  H    Isotropic =    29.8044   Anisotropy =     6.9856
   XX=    29.9735   YX=    -1.9572   ZX=     1.9602
   XY=    -1.4012   YY=    27.9085   ZY=    -3.3578
   XZ=     1.6018   YZ=    -2.5687   ZZ=    31.5310
   Eigenvalues:    26.1311    28.8206    34.4614
     26  H    Isotropic =    30.4805   Anisotropy =     6.7837
   XX=    30.9015   YX=     1.0788   ZX=    -2.1664
   XY=     0.3923   YY=    29.1993   ZY=    -3.8975
   XZ=    -1.3877   YZ=    -3.5656   ZZ=    31.3409
   Eigenvalues:    26.3317    30.1069    35.0030
     27  H    Isotropic =    30.5996   Anisotropy =     9.9439
   XX=    32.5946   YX=     4.5423   ZX=     2.4713
   XY=     3.5885   YY=    30.6172   ZY=     3.8066
   XZ=     1.4653   YZ=     2.4914   ZZ=    28.5871
   Eigenvalues:    26.1135    28.4565    37.2289
     28  H    Isotropic =    30.6306   Anisotropy =    10.5209
   XX=    36.5273   YX=    -2.7303   ZX=    -1.9099
   XY=    -1.8439   YY=    28.7974   ZY=     0.3988
   XZ=    -2.4160   YZ=     1.4591   ZZ=    26.5671
   Eigenvalues:    26.0292    28.2182    37.6445
     29  H    Isotropic =    30.8337   Anisotropy =     5.7345
   XX=    29.7040   YX=    -1.6843   ZX=     1.4251
   XY=    -1.5767   YY=    28.6226   ZY=     1.6276
   XZ=     1.3651   YZ=     0.6915   ZZ=    34.1746
   Eigenvalues:    27.0114    30.8330    34.6568
     30  H    Isotropic =    30.2462   Anisotropy =     7.3584
   XX=    32.1374   YX=     2.2577   ZX=    -2.5781
   XY=     3.1707   YY=    32.6730   ZY=     0.7697
   XZ=    -1.5101   YZ=     1.8677   ZZ=    25.9280
   Eigenvalues:    24.7451    30.8416    35.1518
     31  H    Isotropic =    30.6419   Anisotropy =    10.5909
   XX=    31.4663   YX=    -3.9733   ZX=    -1.1547
   XY=    -4.3060   YY=    33.3373   ZY=     2.9230
   XZ=    -1.8774   YZ=     3.1921   ZZ=    27.1221
   Eigenvalues:    25.8621    28.3612    37.7025
 End of Minotr Frequency-dependent properties file   721 does not exist.
 End of Minotr Frequency-dependent properties file   722 does not exist.

 **********************************************************************

            Population analysis using the SCF density.

 **********************************************************************

 Orbital symmetries:
       Occupied  (A) (A) (A) (A) (A) (A) (A) (A) (A) (A) (A) (A)
                 (A) (A) (A) (A) (A) (A) (A) (A) (A) (A) (A) (A)
                 (A) (A) (A) (A) (A) (A) (A) (A) (A) (A) (A) (A)
                 (A) (A) (A) (A) (A) (A) (A) (A)
       Virtual   (A) (A) (A) (A) (A) (A) (A) (A) (A) (A) (A) (A)
                 (A) (A) (A) (A) (A) (A) (A) (A) (A) (A) (A) (A)
                 (A) (A) (A) (A) (A) (A) (A) (A) (A) (A) (A) (A)
                 (A) (A) (A) (A) (A) (A) (A) (A) (A) (A) (A) (A)
                 (A) (A) (A) (A) (A) (A) (A) (A) (A) (A) (A) (A)
                 (A) (A) (A) (A) (A) (A) (A) (A) (A) (A) (A) (A)
                 (A) (A) (A) (A) (A) (A) (A) (A) (A) (A) (A) (A)
                 (A) (A) (A) (A) (A) (A) (A) (A) (A) (A) (A) (A)
                 (A) (A) (A) (A) (A) (A) (A) (A) (A) (A) (A) (A)
                 (A) (A) (A) (A) (A) (A) (A) (A) (A) (A) (A) (A)
                 (A) (A) (A) (A) (A) (A) (A) (A) (A) (A) (A) (A)
                 (A) (A) (A) (A) (A) (A) (A) (A) (A) (A) (A) (A)
                 (A) (A) (A) (A) (A) (A) (A) (A) (A) (A) (A) (A)
                 (A) (A) (A) (A) (A) (A) (A) (A) (A) (A) (A) (A)
                 (A) (A) (A) (A) (A) (A) (A) (A) (A) (A) (A) (A)
                 (A) (A) (A) (A) (A) (A) (A) (A) (A) (A) (A) (A)
                 (A) (A) (A) (A) (A) (A) (A) (A) (A) (A) (A) (A)
                 (A) (A) (A) (A) (A) (A) (A) (A) (A) (A) (A) (A)
                 (A) (A) (A) (A) (A) (A) (A) (A) (A) (A) (A) (A)
                 (A) (A) (A) (A) (A) (A) (A) (A) (A) (A) (A) (A)
                 (A) (A) (A) (A) (A) (A) (A) (A) (A) (A) (A) (A)
                 (A) (A) (A) (A) (A) (A) (A) (A) (A) (A) (A) (A)
                 (A)
 The electronic state is 1-A.
 Alpha  occ. eigenvalues --  -19.24366 -10.29517 -10.25279 -10.24645 -10.24514
 Alpha  occ. eigenvalues --  -10.24142 -10.23629 -10.23575 -10.23367 -10.23297
 Alpha  occ. eigenvalues --  -10.23211  -1.04837  -0.85622  -0.82038  -0.76634
 Alpha  occ. eigenvalues --   -0.75239  -0.70561  -0.69468  -0.63403  -0.61805
 Alpha  occ. eigenvalues --   -0.58590  -0.54227  -0.51366  -0.49010  -0.46758
 Alpha  occ. eigenvalues --   -0.46367  -0.45376  -0.43123  -0.42700  -0.42349
 Alpha  occ. eigenvalues --   -0.40565  -0.39417  -0.39190  -0.37795  -0.37375
 Alpha  occ. eigenvalues --   -0.36957  -0.35761  -0.34417  -0.33183  -0.32677
 Alpha  occ. eigenvalues --   -0.31362  -0.31054  -0.30100  -0.27842
 Alpha virt. eigenvalues --    0.00671   0.01638   0.02157   0.02276   0.03599
 Alpha virt. eigenvalues --    0.04440   0.04527   0.05012   0.05427   0.06731
 Alpha virt. eigenvalues --    0.07348   0.07674   0.08499   0.08618   0.09036
 Alpha virt. eigenvalues --    0.09256   0.10011   0.10770   0.11231   0.11552
 Alpha virt. eigenvalues --    0.12257   0.13028   0.13797   0.13954   0.14979
 Alpha virt. eigenvalues --    0.15008   0.15777   0.16309   0.16698   0.16801
 Alpha virt. eigenvalues --    0.17908   0.18583   0.18653   0.19516   0.19684
 Alpha virt. eigenvalues --    0.20449   0.20828   0.21250   0.21455   0.21962
 Alpha virt. eigenvalues --    0.23089   0.23460   0.23929   0.24355   0.24732
 Alpha virt. eigenvalues --    0.24899   0.25614   0.26468   0.26949   0.27683
 Alpha virt. eigenvalues --    0.27997   0.28522   0.29266   0.29812   0.30063
 Alpha virt. eigenvalues --    0.30190   0.31130   0.32408   0.32647   0.33279
 Alpha virt. eigenvalues --    0.34046   0.35682   0.36001   0.37011   0.38439
 Alpha virt. eigenvalues --    0.38473   0.39073   0.39818   0.40759   0.41871
 Alpha virt. eigenvalues --    0.43250   0.44888   0.45592   0.49777   0.51179
 Alpha virt. eigenvalues --    0.63881   0.65138   0.65819   0.66429   0.67002
 Alpha virt. eigenvalues --    0.67682   0.69836   0.70943   0.71182   0.73106
 Alpha virt. eigenvalues --    0.74157   0.74644   0.75096   0.76474   0.77949
 Alpha virt. eigenvalues --    0.78084   0.79433   0.82159   0.83434   0.84126
 Alpha virt. eigenvalues --    0.84643   0.87951   0.88400   0.90448   0.90834
 Alpha virt. eigenvalues --    0.93756   0.95817   0.98315   0.99892   1.00351
 Alpha virt. eigenvalues --    1.01546   1.02002   1.02522   1.03314   1.04939
 Alpha virt. eigenvalues --    1.06646   1.07611   1.08435   1.10737   1.11097
 Alpha virt. eigenvalues --    1.11925   1.13665   1.15271   1.15772   1.17582
 Alpha virt. eigenvalues --    1.18307   1.18413   1.19661   1.21187   1.23290
 Alpha virt. eigenvalues --    1.24885   1.26587   1.28241   1.30166   1.31340
 Alpha virt. eigenvalues --    1.37084   1.38860   1.42034   1.44123   1.45642
 Alpha virt. eigenvalues --    1.45782   1.50461   1.52733   1.55337   1.55810
 Alpha virt. eigenvalues --    1.58676   1.61148   1.63124   1.64609   1.68362
 Alpha virt. eigenvalues --    1.69495   1.72620   1.74204   1.77106   1.81410
 Alpha virt. eigenvalues --    1.82778   1.84097   1.85454   1.87238   1.88563
 Alpha virt. eigenvalues --    1.89950   1.91438   1.91643   1.93840   1.95575
 Alpha virt. eigenvalues --    1.97578   1.98448   1.99754   2.02297   2.02903
 Alpha virt. eigenvalues --    2.05659   2.05945   2.06299   2.07018   2.08714
 Alpha virt. eigenvalues --    2.09345   2.12585   2.13132   2.13727   2.15985
 Alpha virt. eigenvalues --    2.16281   2.17094   2.17504   2.19169   2.20643
 Alpha virt. eigenvalues --    2.20727   2.22473   2.24308   2.25630   2.29334
 Alpha virt. eigenvalues --    2.34066   2.35164   2.35653   2.36164   2.37265
 Alpha virt. eigenvalues --    2.38565   2.39044   2.40169   2.43272   2.45990
 Alpha virt. eigenvalues --    2.47468   2.49795   2.53589   2.56738   2.58003
 Alpha virt. eigenvalues --    2.58822   2.61012   2.62497   2.64063   2.65045
 Alpha virt. eigenvalues --    2.66975   2.67430   2.68503   2.70684   2.72994
 Alpha virt. eigenvalues --    2.74136   2.75519   2.76233   2.76874   2.79935
 Alpha virt. eigenvalues --    2.80183   2.81113   2.83757   2.84719   2.85050
 Alpha virt. eigenvalues --    2.85531   2.88842   2.89453   2.91737   2.91976
 Alpha virt. eigenvalues --    2.92463   2.93352   2.96127   2.97691   2.98629
 Alpha virt. eigenvalues --    2.99521   3.04553   3.04841   3.14813   3.29316
 Alpha virt. eigenvalues --    3.29358   3.31043   3.35977   3.38800   3.39160
 Alpha virt. eigenvalues --    3.41358   3.42691   3.48006   3.48863   3.50338
 Alpha virt. eigenvalues --    3.52500   3.53443   3.54295   3.54821   3.56575
 Alpha virt. eigenvalues --    3.58284   3.59083   3.60715   3.64312   4.35705
 Alpha virt. eigenvalues --    4.42521   4.42640   4.56429   4.59600   4.61600
 Alpha virt. eigenvalues --    4.62939   4.75588   4.84417   4.91183   4.95012
          Condensed to atoms (all electrons):
              1          2          3          4          5          6
     1  C    7.357284   0.661350   0.232599  -0.126047  -0.290138  -0.800833
     2  C    0.661350   8.967130   0.312338  -0.464488  -0.216643  -1.916272
     3  C    0.232599   0.312338   6.646565  -0.461827   0.058346  -0.414125
     4  C   -0.126047  -0.464488  -0.461827   6.968439  -0.286438   0.044656
     5  C   -0.290138  -0.216643   0.058346  -0.286438   6.054520  -0.099194
     6  C   -0.800833  -1.916272  -0.414125   0.044656  -0.099194   7.673760
     7  C   -0.920744  -0.632155  -0.240523   0.082310   0.176015   0.633784
     8  O   -0.027970  -0.148890  -0.105944   0.061358  -0.020480   0.169173
     9  C   -0.152647  -1.245553  -0.085999  -0.073462   0.177211   0.605421
    10  C    0.012144   0.167530  -0.112301   0.100907  -0.031770  -0.026241
    11  C    0.092941   0.240170   0.111529  -0.147784  -0.065742  -0.196966
    12  H    0.281526  -0.054449  -0.047995   0.026223   0.018684   0.025105
    13  H    0.008190   0.063685  -0.027004   0.054736  -0.000384   0.116509
    14  H   -0.012348  -0.062106   0.381018   0.006017  -0.032577   0.013409
    15  H    0.031148   0.037527   0.425232  -0.113557  -0.031898  -0.020011
    16  H   -0.009007   0.028817  -0.041593   0.274277   0.027194   0.042233
    17  H   -0.021746  -0.003153  -0.015900   0.045319   0.316313   0.034491
    18  H   -0.107271  -0.040026  -0.114222   0.062528   0.462990   0.025984
    19  H   -0.007114   0.070397   0.004668   0.015148   0.037933   0.233384
    20  H   -0.105525  -0.073693  -0.021204   0.047826   0.014309   0.441448
    21  H   -0.111394   0.002696  -0.005153   0.002461   0.022925  -0.002667
    22  H   -0.111405  -0.007141  -0.004951   0.003446   0.009129   0.008525
    23  H   -0.145001  -0.016222  -0.002988   0.004785   0.009563   0.040656
    24  H   -0.005309   0.182330   0.016145  -0.020805   0.012437  -0.134814
    25  H    0.003814   0.028856  -0.001640  -0.032331   0.015260  -0.024063
    26  H    0.001227   0.000896   0.000861   0.010973   0.001891  -0.011665
    27  H   -0.000036   0.029922  -0.010442  -0.012056   0.000814   0.002169
    28  H   -0.000195   0.007829  -0.008122   0.037706   0.000102  -0.000572
    29  H    0.007246   0.043121  -0.000315  -0.013142   0.003002  -0.041409
    30  H   -0.004368  -0.059383   0.035828  -0.005017  -0.026048   0.028686
    31  H   -0.000587   0.001503   0.000757   0.027483  -0.001090   0.001243
              7          8          9         10         11         12
     1  C   -0.920744  -0.027970  -0.152647   0.012144   0.092941   0.281526
     2  C   -0.632155  -0.148890  -1.245553   0.167530   0.240170  -0.054449
     3  C   -0.240523  -0.105944  -0.085999  -0.112301   0.111529  -0.047995
     4  C    0.082310   0.061358  -0.073462   0.100907  -0.147784   0.026223
     5  C    0.176015  -0.020480   0.177211  -0.031770  -0.065742   0.018684
     6  C    0.633784   0.169173   0.605421  -0.026241  -0.196966   0.025105
     7  C    6.107467   0.054749   0.113245  -0.003337  -0.025779   0.013387
     8  O    0.054749   8.325155   0.060587   0.008992  -0.010344   0.009218
     9  C    0.113245   0.060587   7.067293  -0.266455  -0.146318   0.003823
    10  C   -0.003337   0.008992  -0.266455   5.541270  -0.058737   0.000289
    11  C   -0.025779  -0.010344  -0.146318  -0.058737   5.527232  -0.002800
    12  H    0.013387   0.009218   0.003823   0.000289  -0.002800   0.557183
    13  H    0.013587  -0.035918   0.087405  -0.013946  -0.014328  -0.000069
    14  H    0.006884   0.004562   0.023965  -0.001015  -0.002348   0.003446
    15  H   -0.002167  -0.000395  -0.018925   0.003166   0.006660   0.000014
    16  H    0.001562  -0.010000  -0.007144  -0.017068  -0.002519  -0.000075
    17  H   -0.024563   0.000415  -0.003362   0.000480   0.001041  -0.004515
    18  H    0.007904   0.000439   0.024079   0.002224  -0.021668   0.005352
    19  H   -0.018692  -0.019365  -0.007102  -0.001476   0.005351  -0.003995
    20  H    0.005100   0.009497   0.005953   0.002899  -0.018042   0.005084
    21  H    0.450331  -0.000229  -0.000465  -0.000027   0.000295  -0.003652
    22  H    0.450373   0.000095   0.000793   0.000033  -0.000161   0.004721
    23  H    0.466960   0.000205   0.000934   0.000010  -0.000293  -0.003629
    24  H   -0.013374   0.206769  -0.012224  -0.000416   0.000560   0.000167
    25  H   -0.000186  -0.000498   0.268777   0.006003   0.002876  -0.000001
    26  H    0.000050  -0.000289  -0.103959   0.446153   0.002095   0.000000
    27  H    0.000049  -0.000108  -0.091270   0.437413   0.002530   0.000000
    28  H   -0.000006  -0.000018  -0.129308   0.457420  -0.005235   0.000000
    29  H   -0.001034  -0.000242  -0.100514  -0.003241   0.453122  -0.000002
    30  H    0.002909  -0.000002  -0.041656  -0.001723   0.429354  -0.000007
    31  H   -0.000451   0.000023  -0.113640   0.007160   0.435879   0.000000
             13         14         15         16         17         18
     1  C    0.008190  -0.012348   0.031148  -0.009007  -0.021746  -0.107271
     2  C    0.063685  -0.062106   0.037527   0.028817  -0.003153  -0.040026
     3  C   -0.027004   0.381018   0.425232  -0.041593  -0.015900  -0.114222
     4  C    0.054736   0.006017  -0.113557   0.274277   0.045319   0.062528
     5  C   -0.000384  -0.032577  -0.031898   0.027194   0.316313   0.462990
     6  C    0.116509   0.013409  -0.020011   0.042233   0.034491   0.025984
     7  C    0.013587   0.006884  -0.002167   0.001562  -0.024563   0.007904
     8  O   -0.035918   0.004562  -0.000395  -0.010000   0.000415   0.000439
     9  C    0.087405   0.023965  -0.018925  -0.007144  -0.003362   0.024079
    10  C   -0.013946  -0.001015   0.003166  -0.017068   0.000480   0.002224
    11  C   -0.014328  -0.002348   0.006660  -0.002519   0.001041  -0.021668
    12  H   -0.000069   0.003446   0.000014  -0.000075  -0.004515   0.005352
    13  H    0.633615  -0.000104  -0.000099  -0.003169   0.000012  -0.000066
    14  H   -0.000104   0.532506  -0.027737  -0.008043  -0.005446   0.004865
    15  H   -0.000099  -0.027737   0.564578  -0.000615  -0.002180  -0.004042
    16  H   -0.003169  -0.008043  -0.000615   0.561303  -0.000123  -0.000127
    17  H    0.000012  -0.005446  -0.002180  -0.000123   0.555622  -0.031145
    18  H   -0.000066   0.004865  -0.004042  -0.000127  -0.031145   0.568031
    19  H   -0.005689  -0.000025   0.000010  -0.000167  -0.000139  -0.000021
    20  H   -0.002333   0.000073  -0.000002  -0.000104  -0.000015   0.003278
    21  H   -0.000003   0.000000   0.000002   0.000000   0.000020  -0.000008
    22  H   -0.000003   0.000002   0.000001   0.000000  -0.000165   0.003525
    23  H    0.000003  -0.000001  -0.000004   0.000000   0.002837  -0.000256
    24  H   -0.006220  -0.000160   0.000010   0.000270  -0.000007   0.000000
    25  H    0.000081   0.000196   0.005351  -0.003931  -0.000015   0.000061
    26  H    0.001683   0.000002   0.000002  -0.000348   0.000000   0.000001
    27  H   -0.000061  -0.000009   0.000008   0.004121   0.000000  -0.000001
    28  H   -0.000088   0.000002  -0.000009   0.000166   0.000000   0.000000
    29  H    0.000001  -0.000001   0.000028  -0.000052  -0.000002  -0.000019
    30  H    0.000168  -0.000054   0.000172  -0.000049   0.000121   0.001391
    31  H   -0.000037   0.000003  -0.000033  -0.000110  -0.000001   0.000121
             19         20         21         22         23         24
     1  C   -0.007114  -0.105525  -0.111394  -0.111405  -0.145001  -0.005309
     2  C    0.070397  -0.073693   0.002696  -0.007141  -0.016222   0.182330
     3  C    0.004668  -0.021204  -0.005153  -0.004951  -0.002988   0.016145
     4  C    0.015148   0.047826   0.002461   0.003446   0.004785  -0.020805
     5  C    0.037933   0.014309   0.022925   0.009129   0.009563   0.012437
     6  C    0.233384   0.441448  -0.002667   0.008525   0.040656  -0.134814
     7  C   -0.018692   0.005100   0.450331   0.450373   0.466960  -0.013374
     8  O   -0.019365   0.009497  -0.000229   0.000095   0.000205   0.206769
     9  C   -0.007102   0.005953  -0.000465   0.000793   0.000934  -0.012224
    10  C   -0.001476   0.002899  -0.000027   0.000033   0.000010  -0.000416
    11  C    0.005351  -0.018042   0.000295  -0.000161  -0.000293   0.000560
    12  H   -0.003995   0.005084  -0.003652   0.004721  -0.003629   0.000167
    13  H   -0.005689  -0.002333  -0.000003  -0.000003   0.000003  -0.006220
    14  H   -0.000025   0.000073   0.000000   0.000002  -0.000001  -0.000160
    15  H    0.000010  -0.000002   0.000002   0.000001  -0.000004   0.000010
    16  H   -0.000167  -0.000104   0.000000   0.000000   0.000000   0.000270
    17  H   -0.000139  -0.000015   0.000020  -0.000165   0.002837  -0.000007
    18  H   -0.000021   0.003278  -0.000008   0.003525  -0.000256   0.000000
    19  H    0.568273  -0.028135   0.002716  -0.000143  -0.000012   0.006144
    20  H   -0.028135   0.547652  -0.000197   0.003371  -0.000002   0.000208
    21  H    0.002716  -0.000197   0.535827  -0.028518  -0.025395   0.000012
    22  H   -0.000143   0.003371  -0.028518   0.536332  -0.027898   0.000000
    23  H   -0.000012  -0.000002  -0.025395  -0.027898   0.532686   0.000000
    24  H    0.006144   0.000208   0.000012   0.000000   0.000000   0.414933
    25  H    0.000004  -0.000003   0.000000   0.000000   0.000000   0.000005
    26  H    0.000005   0.000019   0.000000   0.000000   0.000000   0.000025
    27  H    0.000000  -0.000002   0.000000   0.000000   0.000000  -0.000001
    28  H    0.000000  -0.000002   0.000000   0.000000   0.000000   0.000000
    29  H    0.000136   0.001265   0.000000  -0.000007   0.000000   0.000006
    30  H    0.000013  -0.000583   0.000000  -0.000013   0.000001  -0.000001
    31  H   -0.000002   0.000137   0.000000   0.000000   0.000000   0.000000
             25         26         27         28         29         30
     1  C    0.003814   0.001227  -0.000036  -0.000195   0.007246  -0.004368
     2  C    0.028856   0.000896   0.029922   0.007829   0.043121  -0.059383
     3  C   -0.001640   0.000861  -0.010442  -0.008122  -0.000315   0.035828
     4  C   -0.032331   0.010973  -0.012056   0.037706  -0.013142  -0.005017
     5  C    0.015260   0.001891   0.000814   0.000102   0.003002  -0.026048
     6  C   -0.024063  -0.011665   0.002169  -0.000572  -0.041409   0.028686
     7  C   -0.000186   0.000050   0.000049  -0.000006  -0.001034   0.002909
     8  O   -0.000498  -0.000289  -0.000108  -0.000018  -0.000242  -0.000002
     9  C    0.268777  -0.103959  -0.091270  -0.129308  -0.100514  -0.041656
    10  C    0.006003   0.446153   0.437413   0.457420  -0.003241  -0.001723
    11  C    0.002876   0.002095   0.002530  -0.005235   0.453122   0.429354
    12  H   -0.000001   0.000000   0.000000   0.000000  -0.000002  -0.000007
    13  H    0.000081   0.001683  -0.000061  -0.000088   0.000001   0.000168
    14  H    0.000196   0.000002  -0.000009   0.000002  -0.000001  -0.000054
    15  H    0.005351   0.000002   0.000008  -0.000009   0.000028   0.000172
    16  H   -0.003931  -0.000348   0.004121   0.000166  -0.000052  -0.000049
    17  H   -0.000015   0.000000   0.000000   0.000000  -0.000002   0.000121
    18  H    0.000061   0.000001  -0.000001   0.000000  -0.000019   0.001391
    19  H    0.000004   0.000005   0.000000   0.000000   0.000136   0.000013
    20  H   -0.000003   0.000019  -0.000002  -0.000002   0.001265  -0.000583
    21  H    0.000000   0.000000   0.000000   0.000000   0.000000   0.000000
    22  H    0.000000   0.000000   0.000000   0.000000  -0.000007  -0.000013
    23  H    0.000000   0.000000   0.000000   0.000000   0.000000   0.000001
    24  H    0.000005   0.000025  -0.000001   0.000000   0.000006  -0.000001
    25  H    0.586784   0.005074  -0.003730  -0.004253   0.005159  -0.003634
    26  H    0.005074   0.540366  -0.028016  -0.028527   0.003288  -0.000012
    27  H   -0.003730  -0.028016   0.529967  -0.024864   0.000014  -0.000139
    28  H   -0.004253  -0.028527  -0.024864   0.531678  -0.000226   0.000052
    29  H    0.005159   0.003288   0.000014  -0.000226   0.541146  -0.028855
    30  H   -0.003634  -0.000012  -0.000139   0.000052  -0.028855   0.541306
    31  H   -0.004216  -0.000185   0.000085   0.002800  -0.028489  -0.026097
             31
     1  C   -0.000587
     2  C    0.001503
     3  C    0.000757
     4  C    0.027483
     5  C   -0.001090
     6  C    0.001243
     7  C   -0.000451
     8  O    0.000023
     9  C   -0.113640
    10  C    0.007160
    11  C    0.435879
    12  H    0.000000
    13  H   -0.000037
    14  H    0.000003
    15  H   -0.000033
    16  H   -0.000110
    17  H   -0.000001
    18  H    0.000121
    19  H   -0.000002
    20  H    0.000137
    21  H    0.000000
    22  H    0.000000
    23  H    0.000000
    24  H    0.000000
    25  H   -0.004216
    26  H   -0.000185
    27  H    0.000085
    28  H    0.002800
    29  H   -0.028489
    30  H   -0.026097
    31  H    0.533956
 Mulliken atomic charges:
              1
     1  C    0.270218
     2  C    0.094077
     3  C   -0.503639
     4  C   -0.119643
     5  C   -0.316236
     6  C   -0.451804
     7  C   -0.703653
     8  O   -0.530549
     9  C    0.160516
    10  C   -0.656339
    11  C   -0.592572
    12  H    0.166967
    13  H    0.129843
    14  H    0.175027
    15  H    0.147761
    16  H    0.164301
    17  H    0.155805
    18  H    0.146100
    19  H    0.147896
    20  H    0.161724
    21  H    0.160422
    22  H    0.160058
    23  H    0.163062
    24  H    0.353309
    25  H    0.150202
    26  H    0.158388
    27  H    0.163645
    28  H    0.163670
    29  H    0.160015
    30  H    0.157639
    31  H    0.163789
 Sum of Mulliken atomic charges =   0.00000
 Mulliken charges with hydrogens summed into heavy atoms:
              1
     1  C    0.437184
     2  C    0.223921
     3  C   -0.180850
     4  C    0.044658
     5  C   -0.014332
     6  C   -0.142184
     7  C   -0.220111
     8  O   -0.177239
     9  C    0.310717
    10  C   -0.170635
    11  C   -0.111128
 Sum of Mulliken charges with hydrogens summed into heavy atoms =   0.00000
 Electronic spatial extent (au):  <R**2>=           2029.2044
 Charge=              0.0000 electrons
 Dipole moment (field-independent basis, Debye):
    X=             -0.3437    Y=             -0.6083    Z=             -1.3538  Tot=              1.5235
 Quadrupole moment (field-independent basis, Debye-Ang):
   XX=            -71.1871   YY=            -73.2725   ZZ=            -71.3679
   XY=             -2.9061   XZ=              0.8993   YZ=             -4.4929
 Traceless Quadrupole moment (field-independent basis, Debye-Ang):
   XX=              0.7554   YY=             -1.3300   ZZ=              0.5746
   XY=             -2.9061   XZ=              0.8993   YZ=             -4.4929
 Octapole moment (field-independent basis, Debye-Ang**2):
  XXX=             -0.1676  YYY=             11.7670  ZZZ=              1.0294  XYY=             -7.2105
  XXY=              5.3728  XXZ=              2.9689  XZZ=             -0.8830  YZZ=              5.7711
  YYZ=            -11.5401  XYZ=              3.6064
 Hexadecapole moment (field-independent basis, Debye-Ang**3):
 XXXX=          -1722.1100 YYYY=           -633.9757 ZZZZ=           -456.3912 XXXY=            -23.4242
 XXXZ=             -3.5258 YYYX=            -35.2664 YYYZ=            -34.1194 ZZZX=             -0.1534
 ZZZY=             -5.3528 XXYY=           -382.8605 XXZZ=           -358.1120 YYZZ=           -179.4633
 XXYZ=             -4.4407 YYXZ=              9.1461 ZZXY=             -1.8966
 N-N= 6.972564720281D+02 E-N=-2.479931229786D+03  KE= 4.636960876416D+02
 1\1\GINC-COMPUTE-10-2\SP\RmPW1PW91\6-31+G(d,p)\C10H20O1\ASAROTTI.IQUIR
 \19-Sep-2024\0\\# mPW1PW91/6-31+G** nmr scrf=(pcm,solvent=benzene)\\co
 mment\\0,1\C,0,-2.048975,-0.055379,0.003127\C,0,0.175575,1.142608,-0.4
 57291\C,0,-0.120438,-0.256142,1.653769\C,0,0.899222,0.357607,0.660074\
 C,0,-1.328935,-0.960432,1.016406\C,0,-1.043876,0.421338,-1.05772\C,0,-
 3.255967,-0.75203,-0.633627\O,0,-0.230039,2.378982,0.154684\C,0,2.0230
 65,-0.614094,0.186891\C,0,3.249039,0.159805,-0.3322\C,0,1.631707,-1.69
 9306,-0.830571\H,0,-2.40546,0.833481,0.543229\H,0,0.887992,1.362165,-1
 .268486\H,0,-0.503179,0.560521,2.278551\H,0,0.402304,-0.944149,2.33167
 3\H,0,1.433666,1.133048,1.224519\H,0,-2.029008,-1.263095,1.807194\H,0,
 -1.021845,-1.886894,0.511473\H,0,-1.538445,1.101745,-1.769287\H,0,-0.7
 06121,-0.43792,-1.651364\H,0,-3.776661,-0.090004,-1.336631\H,0,-2.9481
 55,-1.648389,-1.188074\H,0,-3.979727,-1.065875,0.128338\H,0,-0.747438,
 2.872568,-0.501313\H,0,2.34584,-1.137241,1.099741\H,0,3.029267,0.69531
 ,-1.263968\H,0,3.597677,0.897066,0.400345\H,0,4.07982,-0.52504,-0.5403
 66\H,0,1.354102,-1.267189,-1.799543\H,0,0.799067,-2.319936,-0.486423\H
 ,0,2.484119,-2.365874,-1.01023\\Version=AM64L-G09RevC.01\State=1-A\HF=
 -468.2770886\RMSD=8.182e-09\Dipole=-0.1352304,-0.2393218,-0.5326456\Qu
 adrupole=0.5616276,-0.9888039,0.4271763,-2.1606306,0.668595,-3.3403663
 \PG=C01 [X(C10H20O1)]\\@


 This summer one third of the nation will be ill-housed
 ill-nourished and ill-clad. Only they call it a vacation.
 -- Jonas Salk
 Job cpu time:  0 days  0 hours  9 minutes 39.7 seconds.
 File lengths (MBytes):  RWF=    121 Int=      0 D2E=      0 Chk=      7 Scr=      1
 Normal termination of Gaussian 09 at Thu Sep 19 08:56:04 2024.
