 Entering Gaussian System, Link 0=g09
 Input=/home/asarotti.iquir/SCF2/02_Mentol04_OptB_NMR_benzene.gjc
 Output=/home/asarotti.iquir/SCF2/02_Mentol04_OptB_NMR_benzene.log
 Initial command:
 /opt/ohpc/pub/apps/software/Gaussian/09/EM64T.SSE4.2-enabled/g09/l1.exe /local/asarotti.iquir/Gau-993550.inp -scrdir=/local/asarotti.iquir/
 Entering Link 1 = /opt/ohpc/pub/apps/software/Gaussian/09/EM64T.SSE4.2-enabled/g09/l1.exe PID=    993551.
  
 Copyright (c) 1988,1990,1992,1993,1995,1998,2003,2009,2011,
            Gaussian, Inc.  All Rights Reserved.
  
 This is part of the Gaussian(R) 09 program.  It is based on
 the Gaussian(R) 03 system (copyright 2003, Gaussian, Inc.),
 the Gaussian(R) 98 system (copyright 1998, Gaussian, Inc.),
 the Gaussian(R) 94 system (copyright 1995, Gaussian, Inc.),
 the Gaussian 92(TM) system (copyright 1992, Gaussian, Inc.),
 the Gaussian 90(TM) system (copyright 1990, Gaussian, Inc.),
 the Gaussian 88(TM) system (copyright 1988, Gaussian, Inc.),
 the Gaussian 86(TM) system (copyright 1986, Carnegie Mellon
 University), and the Gaussian 82(TM) system (copyright 1983,
 Carnegie Mellon University). Gaussian is a federally registered
 trademark of Gaussian, Inc.
  
 This software contains proprietary and confidential information,
 including trade secrets, belonging to Gaussian, Inc.
  
 This software is provided under written license and may be
 used, copied, transmitted, or stored only in accord with that
 written license.
  
 The following legend is applicable only to US Government
 contracts under FAR:
  
                    RESTRICTED RIGHTS LEGEND
  
 Use, reproduction and disclosure by the US Government is
 subject to restrictions as set forth in subparagraphs (a)
 and (c) of the Commercial Computer Software - Restricted
 Rights clause in FAR 52.227-19.
  
 Gaussian, Inc.
 340 Quinnipiac St., Bldg. 40, Wallingford CT 06492
  
  
 ---------------------------------------------------------------
 Warning -- This program may not be used in any manner that
 competes with the business of Gaussian, Inc. or will provide
 assistance to any competitor of Gaussian, Inc.  The licensee
 of this program is prohibited from giving any competitor of
 Gaussian, Inc. access to this program.  By using this program,
 the user acknowledges that Gaussian, Inc. is engaged in the
 business of creating and licensing software in the field of
 computational chemistry and represents and warrants to the
 licensee that it is not a competitor of Gaussian, Inc. and that
 it will not use this program in any manner prohibited above.
 ---------------------------------------------------------------
  

 Cite this work as:
 Gaussian 09, Revision C.01,
 M. J. Frisch, G. W. Trucks, H. B. Schlegel, G. E. Scuseria, 
 M. A. Robb, J. R. Cheeseman, G. Scalmani, V. Barone, B. Mennucci, 
 G. A. Petersson, H. Nakatsuji, M. Caricato, X. Li, H. P. Hratchian, 
 A. F. Izmaylov, J. Bloino, G. Zheng, J. L. Sonnenberg, M. Hada, 
 M. Ehara, K. Toyota, R. Fukuda, J. Hasegawa, M. Ishida, T. Nakajima, 
 Y. Honda, O. Kitao, H. Nakai, T. Vreven, J. A. Montgomery, Jr., 
 J. E. Peralta, F. Ogliaro, M. Bearpark, J. J. Heyd, E. Brothers, 
 K. N. Kudin, V. N. Staroverov, T. Keith, R. Kobayashi, J. Normand, 
 K. Raghavachari, A. Rendell, J. C. Burant, S. S. Iyengar, J. Tomasi, 
 M. Cossi, N. Rega, J. M. Millam, M. Klene, J. E. Knox, J. B. Cross, 
 V. Bakken, C. Adamo, J. Jaramillo, R. Gomperts, R. E. Stratmann, 
 O. Yazyev, A. J. Austin, R. Cammi, C. Pomelli, J. W. Ochterski, 
 R. L. Martin, K. Morokuma, V. G. Zakrzewski, G. A. Voth, 
 P. Salvador, J. J. Dannenberg, S. Dapprich, A. D. Daniels, 
 O. Farkas, J. B. Foresman, J. V. Ortiz, J. Cioslowski, 
 and D. J. Fox, Gaussian, Inc., Wallingford CT, 2010.
 
 ******************************************
 Gaussian 09:  EM64L-G09RevC.01 23-Sep-2011
                19-Sep-2024 
 ******************************************
 %nprocshared=4
 Will use up to    4 processors via shared memory.
 %mem=100mw
 --------------------------------------------------
 # mPW1PW91/6-31+G** nmr scrf=(pcm,solvent=benzene)
 --------------------------------------------------
 1/38=1/1;
 2/12=2,17=6,18=5,40=1/2;
 3/5=1,6=6,7=111,11=2,16=1,25=1,30=1,70=2201,72=12,74=-7/1,2,8,3;
 4//1;
 5/5=2,38=5,53=12/2;
 8/6=1,10=90,11=11/1;
 10/13=100,45=16/2;
 6/7=2,8=2,9=2,10=2,28=1/1;
 99/9=1/99;
 -------
 comment
 -------
 Charge =  0 Multiplicity = 1
 Symbolic Z-Matrix:
 6                    -2.04345  -0.28175  -0.06652 
 6                    -0.07999   1.37128  -0.07709 
 6                    -0.00786  -0.64193   1.41738 
 6                     0.85692   0.31725   0.56925 
 6                    -1.11692  -1.31764   0.59561 
 6                    -1.21866   0.73222  -0.87997 
 6                    -3.11873  -0.94583  -0.93343 
 8                    -0.70409   2.18344   0.92831 
 6                     1.79034  -0.38762  -0.4595 
 6                     2.60034  -1.53139   0.17661 
 6                     2.7621    0.60393  -1.12623 
 1                    -2.54431   0.27575   0.73686 
 1                     0.49728   2.02421  -0.74729 
 1                    -0.47553  -0.05276   2.21531 
 1                     0.61811  -1.39181   1.9116 
 1                     1.5252    0.86287   1.25909 
 1                    -1.70616  -1.98148   1.24253 
 1                    -0.67582  -1.96047  -0.18158 
 1                    -1.86872   1.53354  -1.25293 
 1                    -0.79194   0.23656  -1.76343 
 1                    -3.79367  -0.20106  -1.37265 
 1                    -2.66704  -1.5122   -1.75894 
 1                    -3.72802  -1.6442   -0.34671 
 1                     0.00222   2.57199   1.46813 
 1                     1.1696   -0.8288   -1.25203 
 1                     3.1837   -1.17253   1.03513 
 1                     1.96486  -2.35158   0.52407 
 1                     3.30673  -1.94987  -0.55002 
 1                     3.39373   1.09547  -0.37394 
 1                     2.25011   1.38712  -1.69392 
 1                     3.42773   0.08054  -1.8224 
 
                          Input orientation:                          
 ---------------------------------------------------------------------
 Center     Atomic      Atomic             Coordinates (Angstroms)
 Number     Number       Type             X           Y           Z
 ---------------------------------------------------------------------
      1          6           0       -2.043445   -0.281750   -0.066522
      2          6           0       -0.079987    1.371281   -0.077089
      3          6           0       -0.007864   -0.641926    1.417381
      4          6           0        0.856923    0.317252    0.569248
      5          6           0       -1.116917   -1.317640    0.595611
      6          6           0       -1.218661    0.732220   -0.879971
      7          6           0       -3.118727   -0.945827   -0.933430
      8          8           0       -0.704085    2.183442    0.928312
      9          6           0        1.790342   -0.387623   -0.459504
     10          6           0        2.600338   -1.531392    0.176608
     11          6           0        2.762098    0.603931   -1.126229
     12          1           0       -2.544311    0.275747    0.736855
     13          1           0        0.497284    2.024208   -0.747286
     14          1           0       -0.475527   -0.052759    2.215311
     15          1           0        0.618105   -1.391806    1.911602
     16          1           0        1.525204    0.862866    1.259088
     17          1           0       -1.706158   -1.981479    1.242526
     18          1           0       -0.675820   -1.960466   -0.181582
     19          1           0       -1.868719    1.533539   -1.252925
     20          1           0       -0.791942    0.236558   -1.763434
     21          1           0       -3.793665   -0.201060   -1.372646
     22          1           0       -2.667035   -1.512195   -1.758940
     23          1           0       -3.728018   -1.644196   -0.346706
     24          1           0        0.002220    2.571990    1.468127
     25          1           0        1.169603   -0.828797   -1.252025
     26          1           0        3.183704   -1.172530    1.035129
     27          1           0        1.964856   -2.351576    0.524073
     28          1           0        3.306725   -1.949873   -0.550018
     29          1           0        3.393729    1.095475   -0.373938
     30          1           0        2.250111    1.387119   -1.693921
     31          1           0        3.427732    0.080541   -1.822403
 ---------------------------------------------------------------------
                    Distance matrix (angstroms):
                    1          2          3          4          5
     1  C    0.000000
     2  C    2.566669   0.000000
     3  C    2.544658   2.508315   0.000000
     4  C    3.029050   1.551299   1.545059   0.000000
     5  C    1.539462   2.959399   1.536845   2.563125   0.000000
     6  C    1.539514   1.532840   2.938049   2.565245   2.527770
     7  C    1.532566   3.916152   3.911028   4.433870   2.546263
     8  O    2.976701   1.435247   2.950698   2.459337   3.541002
     9  C    3.855330   2.595788   2.611688   1.557707   3.229606
    10  C    4.815126   3.959042   3.022149   2.571215   3.746897
    11  C    5.000065   3.125215   3.961666   2.566421   4.658747
    12  H    1.098674   2.817018   2.781870   3.405614   2.143895
    13  H    3.498026   1.099418   3.471200   2.185475   3.946766
    14  H    2.778051   2.727534   1.096594   2.149850   2.152843
    15  H    3.497005   3.475180   1.094720   2.186282   2.178907
    16  H    3.975254   2.149533   2.154009   1.104615   3.489357
    17  H    2.171738   3.953077   2.170064   3.508112   1.098356
    18  H    2.168346   3.386218   2.177475   2.846234   1.100827
    19  H    2.175628   2.146737   3.914839   3.496969   3.480160
    20  H    2.171270   2.153656   3.391769   2.857739   2.843630
    21  H    2.185347   4.235815   4.723442   5.066317   3.505106
    22  H    2.183378   4.223254   4.232916   4.602783   2.825708
    23  H    2.184616   4.740667   4.237463   5.070299   2.795076
    24  H    3.831935   1.958610   3.214332   2.573392   4.140407
    25  H    3.468192   2.789676   2.923539   2.174450   2.980084
    26  H    5.415737   4.284820   3.257877   2.801857   4.325457
    27  H    4.549666   4.289807   2.759081   2.890017   3.251379
    28  H    5.625009   4.766922   4.070367   3.520531   4.613111
    29  H    5.617305   3.497269   4.218794   2.816135   5.206638
    30  H    4.885507   2.836151   4.346916   2.864877   4.888206
    31  H    5.757443   4.125073   4.777183   3.519245   5.334373
                    6          7          8          9         10
     6  C    0.000000
     7  C    2.535537   0.000000
     8  O    2.375020   4.369085   0.000000
     9  C    3.238046   4.963382   3.841689   0.000000
    10  C    4.563447   5.855149   5.028346   1.539136   0.000000
    11  C    3.990431   6.084655   4.327865   1.540134   2.506622
    12  H    2.140057   2.147568   2.657515   4.545388   5.481518
    13  H    2.152047   4.683086   2.067915   2.751681   4.233049
    14  H    3.278599   4.206976   2.590212   3.521496   3.975376
    15  H    3.959555   4.717734   3.936679   2.829252   2.637980
    16  H    3.481585   5.444686   2.612099   2.141864   2.839040
    17  H    3.479484   2.793333   4.295282   4.202713   4.459223
    18  H    2.834251   2.750011   4.290063   2.938202   3.323495
    19  H    1.097170   2.794969   2.556666   4.208219   5.604448
    20  H    1.099216   2.738772   3.323187   2.959396   4.289169
    21  H    2.782874   1.096873   4.530537   5.661251   6.712171
    22  H    2.812076   1.098301   4.973151   4.777176   5.611767
    23  H    3.496941   1.096905   5.041890   5.660742   6.350958
    24  H    3.223177   5.280419   0.970173   3.958845   5.025533
    25  H    2.877326   4.301741   4.163912   1.099109   2.140475
    26  H    5.164930   6.606607   5.137009   2.188941   1.098251
    27  H    4.649292   5.472044   5.277598   2.203404   1.094199
    28  H    5.270826   6.514718   5.946121   2.179045   1.096401
    29  H    4.654263   6.847775   4.435269   2.185807   2.798750
    30  H    3.622677   5.903000   4.029579   2.210177   3.484142
    31  H    4.785586   6.685793   5.390783   2.181219   2.697954
                   11         12         13         14         15
    11  C    0.000000
    12  H    5.633539   0.000000
    13  H    2.700031   3.809343   0.000000
    14  H    4.698867   2.563906   3.746616   0.000000
    15  H    4.219963   3.763195   4.330524   1.755368   0.000000
    16  H    2.699387   4.144682   2.535916   2.399095   2.516376
    17  H    5.679847   2.460340   4.985984   2.486106   2.489493
    18  H    4.391784   3.055394   4.192114   3.069945   2.525675
    19  H    4.724901   2.449018   2.468683   4.060294   4.975557
    20  H    3.629352   3.053486   2.427005   4.001779   4.259776
    21  H    6.609596   2.497644   4.873924   4.889322   5.627422
    22  H    5.861211   3.072587   4.852062   4.767319   4.927425
    23  H    6.912549   2.502289   5.609887   4.435685   4.904329
    24  H    4.268591   3.506039   2.335211   2.770529   4.035798
    25  H    2.145827   4.355321   2.974292   3.915496   3.260317
    26  H    2.829317   5.915795   4.540153   4.004583   2.720034
    27  H    3.477659   5.223092   4.787234   3.755039   2.158734
    28  H    2.674052   6.390935   4.870851   5.054851   3.687776
    29  H    1.098415   6.096403   3.064527   4.795184   4.371996
    30  H    1.094435   5.489108   2.091507   4.978398   4.835873
    31  H    1.096204   6.500246   3.677124   5.617502   4.899449
                   16         17         18         19         20
    16  H    0.000000
    17  H    4.304913   0.000000
    18  H    3.858917   1.757874   0.000000
    19  H    4.275363   4.313821   3.844328   0.000000
    20  H    3.859672   3.845943   2.709733   1.761314   0.000000
    21  H    6.028958   3.790343   3.772943   2.593951   3.058523
    22  H    5.685444   3.186269   2.579524   3.189021   2.564007
    23  H    6.038234   2.593711   3.072980   3.791599   3.763628
    24  H    2.298757   4.868627   4.870774   3.461635   4.065455
    25  H    3.048584   3.977620   2.414976   3.848640   2.290017
    26  H    2.635074   4.960661   4.122761   6.171303   5.061941
    27  H    3.326587   3.758921   2.761175   5.740047   4.419396
    28  H    3.789219   5.323834   3.999565   6.278014   4.801243
    29  H    2.492442   6.171665   5.092839   5.353305   4.493137
    30  H    3.085546   5.968437   4.696229   4.144958   3.253108
    31  H    3.705028   6.324756   4.867971   5.521585   4.222969
                   21         22         23         24         25
    21  H    0.000000
    22  H    1.771325   0.000000
    23  H    1.771865   1.771303   0.000000
    24  H    5.492590   5.849739   5.914771   0.000000
    25  H    5.004261   3.929858   5.046897   4.508588   0.000000
    26  H    7.444784   6.492560   7.064265   4.932622   3.066892
    27  H    6.432948   5.231742   5.802366   5.383742   2.470993
    28  H    7.358709   6.110553   7.044316   5.953143   2.513348
    29  H    7.371367   6.741738   7.630584   4.132267   3.069299
    30  H    6.257217   5.708640   6.836804   4.056536   2.504606
    31  H    7.240867   6.299764   7.507140   5.363678   2.500275
                   26         27         28         29         30
    26  H    0.000000
    27  H    1.771135   0.000000
    28  H    1.769770   1.765120   0.000000
    29  H    2.678325   3.838002   3.051675   0.000000
    30  H    3.856308   4.356456   3.682453   1.770670   0.000000
    31  H    3.129733   3.682547   2.399206   1.768982   1.763645
                   31
    31  H    0.000000
 Stoichiometry    C10H20O
 Framework group  C1[X(C10H20O)]
 Deg. of freedom    87
 Full point group                 C1      NOp   1
 Largest Abelian subgroup         C1      NOp   1
 Largest concise Abelian subgroup C1      NOp   1
                         Standard orientation:                         
 ---------------------------------------------------------------------
 Center     Atomic      Atomic             Coordinates (Angstroms)
 Number     Number       Type             X           Y           Z
 ---------------------------------------------------------------------
      1          6           0       -2.043445   -0.281750   -0.066522
      2          6           0       -0.079987    1.371281   -0.077089
      3          6           0       -0.007864   -0.641926    1.417381
      4          6           0        0.856923    0.317252    0.569248
      5          6           0       -1.116917   -1.317640    0.595611
      6          6           0       -1.218661    0.732220   -0.879971
      7          6           0       -3.118727   -0.945827   -0.933430
      8          8           0       -0.704085    2.183442    0.928312
      9          6           0        1.790342   -0.387623   -0.459504
     10          6           0        2.600338   -1.531392    0.176608
     11          6           0        2.762098    0.603931   -1.126229
     12          1           0       -2.544311    0.275747    0.736855
     13          1           0        0.497284    2.024208   -0.747286
     14          1           0       -0.475527   -0.052759    2.215311
     15          1           0        0.618105   -1.391806    1.911602
     16          1           0        1.525204    0.862866    1.259088
     17          1           0       -1.706158   -1.981479    1.242526
     18          1           0       -0.675820   -1.960466   -0.181582
     19          1           0       -1.868719    1.533539   -1.252925
     20          1           0       -0.791942    0.236558   -1.763434
     21          1           0       -3.793665   -0.201060   -1.372646
     22          1           0       -2.667035   -1.512195   -1.758940
     23          1           0       -3.728018   -1.644196   -0.346706
     24          1           0        0.002220    2.571990    1.468127
     25          1           0        1.169603   -0.828797   -1.252025
     26          1           0        3.183704   -1.172530    1.035129
     27          1           0        1.964856   -2.351576    0.524073
     28          1           0        3.306725   -1.949873   -0.550018
     29          1           0        3.393729    1.095475   -0.373938
     30          1           0        2.250111    1.387119   -1.693921
     31          1           0        3.427732    0.080541   -1.822403
 ---------------------------------------------------------------------
 Rotational constants (GHZ):      1.4858795      0.7726648      0.6673457
 Standard basis: 6-31+G(d,p) (6D, 7F)
 There are   309 symmetry adapted basis functions of A   symmetry.
 Integral buffers will be    131072 words long.
 Raffenetti 2 integral format.
 Two-electron integral symmetry is turned on.
   309 basis functions,   492 primitive gaussians,   309 cartesian basis functions
    44 alpha electrons       44 beta electrons
       nuclear repulsion energy       696.6349032199 Hartrees.
 NAtoms=   31 NActive=   31 NUniq=   31 SFac= 1.00D+00 NAtFMM=   60 NAOKFM=F Big=F
 ------------------------------------------------------------------------------
 Polarizable Continuum Model (PCM)
 =================================
 Model                : PCM.
 Atomic radii         : UFF (Universal Force Field).
 Polarization charges : Total charges.
 Charge compensation  : None.
 Solution method      : Matrix inversion.
 Cavity type          : Scaled VdW (van der Waals Surface) (Alpha=1.100).
 Cavity algorithm     : GePol (No added spheres)
                        Default sphere list used, NSphG=   31.
                        Lebedev-Laikov grids with approx.  5.0 points / Ang**2.
                        Smoothing algorithm: Karplus/York (Gamma=1.0000).
                        Polarization charges: spherical gaussians, with
                                              point-specific exponents (IZeta= 3).
                        Self-potential: point-specific (ISelfS= 7).
                        Self-field    : sphere-specific E.n sum rule (ISelfD= 2).
 Solvent              : Benzene, Eps=   2.270600 Eps(inf)=   2.253301
 ------------------------------------------------------------------------------
 One-electron integrals computed using PRISM.
 NBasis=   309 RedAO= T  NBF=   309
 NBsUse=   309 1.00D-06 NBFU=   309
 Harris functional with IExCor=  908 diagonalized for initial guess.
 ExpMin= 4.38D-02 ExpMax= 5.48D+03 ExpMxC= 8.25D+02 IAcc=2 IRadAn=         4 AccDes= 0.00D+00
 HarFok:  IExCor=  908 AccDes= 0.00D+00 IRadAn=         4 IDoV= 1
 ScaDFX=  1.000000  1.000000  1.000000  1.000000
 FoFCou: FMM=F IPFlag=           0 FMFlag=      100000 FMFlg1=           0
         NFxFlg=           0 DoJE=T BraDBF=F KetDBF=T FulRan=T
         Omega=  0.000000  0.000000  1.000000  0.000000  0.000000 ICntrl=     500 IOpCl=  0
         NMat0=    1 NMatS0=    1 NMatT0=    0 NMatD0=    1 NMtDS0=    0 NMtDT0=    0
         I1Cent=           4 NGrid=           0.
 Petite list used in FoFCou.
 Initial guess orbital symmetries:
       Occupied  (A) (A) (A) (A) (A) (A) (A) (A) (A) (A) (A) (A)
                 (A) (A) (A) (A) (A) (A) (A) (A) (A) (A) (A) (A)
                 (A) (A) (A) (A) (A) (A) (A) (A) (A) (A) (A) (A)
                 (A) (A) (A) (A) (A) (A) (A) (A)
       Virtual   (A) (A) (A) (A) (A) (A) (A) (A) (A) (A) (A) (A)
                 (A) (A) (A) (A) (A) (A) (A) (A) (A) (A) (A) (A)
                 (A) (A) (A) (A) (A) (A) (A) (A) (A) (A) (A) (A)
                 (A) (A) (A) (A) (A) (A) (A) (A) (A) (A) (A) (A)
                 (A) (A) (A) (A) (A) (A) (A) (A) (A) (A) (A) (A)
                 (A) (A) (A) (A) (A) (A) (A) (A) (A) (A) (A) (A)
                 (A) (A) (A) (A) (A) (A) (A) (A) (A) (A) (A) (A)
                 (A) (A) (A) (A) (A) (A) (A) (A) (A) (A) (A) (A)
                 (A) (A) (A) (A) (A) (A) (A) (A) (A) (A) (A) (A)
                 (A) (A) (A) (A) (A) (A) (A) (A) (A) (A) (A) (A)
                 (A) (A) (A) (A) (A) (A) (A) (A) (A) (A) (A) (A)
                 (A) (A) (A) (A) (A) (A) (A) (A) (A) (A) (A) (A)
                 (A) (A) (A) (A) (A) (A) (A) (A) (A) (A) (A) (A)
                 (A) (A) (A) (A) (A) (A) (A) (A) (A) (A) (A) (A)
                 (A) (A) (A) (A) (A) (A) (A) (A) (A) (A) (A) (A)
                 (A) (A) (A) (A) (A) (A) (A) (A) (A) (A) (A) (A)
                 (A) (A) (A) (A) (A) (A) (A) (A) (A) (A) (A) (A)
                 (A) (A) (A) (A) (A) (A) (A) (A) (A) (A) (A) (A)
                 (A) (A) (A) (A) (A) (A) (A) (A) (A) (A) (A) (A)
                 (A) (A) (A) (A) (A) (A) (A) (A) (A) (A) (A) (A)
                 (A) (A) (A) (A) (A) (A) (A) (A) (A) (A) (A) (A)
                 (A) (A) (A) (A) (A) (A) (A) (A) (A) (A) (A) (A)
                 (A)
 The electronic state of the initial guess is 1-A.
 Requested convergence on RMS density matrix=1.00D-08 within 128 cycles.
 Requested convergence on MAX density matrix=1.00D-06.
 Requested convergence on             energy=1.00D-06.
 No special actions if energy rises.
 Error on total polarization charges =  0.00930
 SCF Done:  E(RmPW1PW91) =  -468.281787692     A.U. after   12 cycles
             Convg  =    0.6773D-08             -V/T =  2.0099
 Range of M.O.s used for correlation:     1   309
 NBasis=   309 NAE=    44 NBE=    44 NFC=     0 NFV=     0
 NROrb=    309 NOA=    44 NOB=    44 NVA=   265 NVB=   265

 **** Warning!!: The largest alpha MO coefficient is  0.77331077D+02

 NEqPCM:  Using equilibrium solvation (IEInf=0, Eps=   2.2706, EpsInf=   2.2533)
          Differentiating once with respect to magnetic field using GIAOs.
          Electric field/nuclear overlap derivatives assumed to be zero.
 FoFCou: FMM=F IPFlag=           0 FMFlag=    10101102 FMFlg1=           0
         NFxFlg=    40000000 DoJE=F BraDBF=F KetDBF=T FulRan=T
         Omega=  0.000000  0.000000  1.000000  0.000000  0.000000 ICntrl=    6100 IOpCl=  0
         NMat0=    1 NMatS0=    1 NMatT0=    0 NMatD0=    1 NMtDS0=    0 NMtDT0=    0
         I1Cent=           7 NGrid=        1953.
 Symmetry not used in FoFCou.
          There are     3 degrees of freedom in the 1st order CPHF.  IDoFFX=0.
      3 vectors produced by pass  0 Test12= 3.89D-13 3.33D-08 XBig12= 3.01D+01 8.87D-01.
 AX will form     3 AO Fock derivatives at one time.
      3 vectors produced by pass  1 Test12= 3.89D-13 3.33D-08 XBig12= 6.54D-02 6.02D-02.
      3 vectors produced by pass  2 Test12= 3.89D-13 3.33D-08 XBig12= 1.83D-04 4.26D-03.
      3 vectors produced by pass  3 Test12= 3.89D-13 3.33D-08 XBig12= 4.90D-07 1.23D-04.
      3 vectors produced by pass  4 Test12= 3.89D-13 3.33D-08 XBig12= 1.10D-09 6.65D-06.
      3 vectors produced by pass  5 Test12= 3.89D-13 3.33D-08 XBig12= 3.49D-12 3.41D-07.
 Inverted reduced A of dimension    18 with in-core refinement.
 Calculating GIAO nuclear magnetic shielding tensors.
 SCF GIAO Magnetic shielding tensor (ppm):
      1  C    Isotropic =   167.1492   Anisotropy =    13.7046
   XX=   166.9436   YX=    -2.6606   ZX=     4.7324
   XY=    -3.7573   YY=   166.5914   ZY=    -3.2231
   XZ=    11.1534   YZ=     1.2187   ZZ=   167.9126
   Eigenvalues:   159.0805   166.0815   176.2856
      2  C    Isotropic =   125.5121   Anisotropy =    51.6137
   XX=   117.6579   YX=   -15.4333   ZX=   -11.5787
   XY=   -18.0537   YY=   122.5511   ZY=    21.5212
   XZ=   -13.2228   YZ=    18.1855   ZZ=   136.3274
   Eigenvalues:   102.4765   114.1386   159.9213
      3  C    Isotropic =   171.6739   Anisotropy =    20.0829
   XX=   180.6095   YX=     5.9005   ZX=     4.8035
   XY=     9.1150   YY=   168.3295   ZY=     0.1334
   XZ=     2.9358   YZ=     2.7722   ZZ=   166.0825
   Eigenvalues:   164.5831   165.3761   185.0624
      4  C    Isotropic =   144.2872   Anisotropy =    27.8044
   XX=   146.8557   YX=    -9.8536   ZX=    -4.9552
   XY=   -11.3478   YY=   141.4848   ZY=    20.0687
   XZ=     3.1259   YZ=    11.0275   ZZ=   144.5209
   Eigenvalues:   124.7959   145.2422   162.8234
      5  C    Isotropic =   165.2946   Anisotropy =    25.0418
   XX=   168.9735   YX=    -4.5892   ZX=    12.4878
   XY=    -9.5227   YY=   163.2057   ZY=    -7.1288
   XZ=     7.8715   YZ=    -6.6869   ZZ=   163.7046
   Eigenvalues:   155.4269   158.4678   181.9891
      6  C    Isotropic =   159.4877   Anisotropy =    25.6205
   XX=   162.2039   YX=    16.8897   ZX=     2.9925
   XY=    10.8569   YY=   163.1467   ZY=     2.7608
   XZ=    -7.2907   YZ=    -0.0334   ZZ=   153.1123
   Eigenvalues:   147.6536   154.2414   176.5680
      7  C    Isotropic =   172.5726   Anisotropy =    38.6067
   XX=   182.0404   YX=    10.6816   ZX=    13.2767
   XY=    13.6568   YY=   166.9127   ZY=     5.9219
   XZ=    18.5040   YZ=     5.6752   ZZ=   168.7648
   Eigenvalues:   157.3629   162.0446   198.3104
      8  O    Isotropic =   276.6847   Anisotropy =   103.8164
   XX=   276.9708   YX=    10.0822   ZX=    55.3928
   XY=    -6.6702   YY=   272.2931   ZY=    44.3437
   XZ=    41.8608   YZ=    48.4452   ZZ=   280.7903
   Eigenvalues:   211.3315   272.8270   345.8957
      9  C    Isotropic =   166.5252   Anisotropy =    13.7593
   XX=   170.1177   YX=    -7.9892   ZX=    -4.3544
   XY=    -5.3384   YY=   165.3614   ZY=    -1.9904
   XZ=    -6.3491   YZ=    -2.9452   ZZ=   164.0963
   Eigenvalues:   156.8289   167.0485   175.6980
     10  C    Isotropic =   174.3989   Anisotropy =    30.3861
   XX=   172.1707   YX=   -15.9908   ZX=     5.4758
   XY=   -10.3127   YY=   180.5246   ZY=    -9.1270
   XZ=     1.9344   YZ=   -11.1648   ZZ=   170.5014
   Eigenvalues:   160.9987   167.5417   194.6563
     11  C    Isotropic =   174.1763   Anisotropy =    33.9204
   XX=   174.7640   YX=    15.9112   ZX=   -12.0071
   XY=    11.4533   YY=   178.6504   ZY=   -10.0037
   XZ=   -10.1484   YZ=    -5.4287   ZZ=   169.1147
   Eigenvalues:   159.8829   165.8562   196.7900
     12  H    Isotropic =    29.4939   Anisotropy =     6.3845
   XX=    31.4298   YX=    -0.7100   ZX=    -2.6541
   XY=    -0.2135   YY=    28.1131   ZY=     3.2021
   XZ=    -2.1479   YZ=     3.0267   ZZ=    28.9389
   Eigenvalues:    25.1138    29.6178    33.7502
     13  H    Isotropic =    27.3787   Anisotropy =     6.2010
   XX=    28.1244   YX=     0.4279   ZX=    -3.6421
   XY=    -0.1952   YY=    27.8723   ZY=    -0.4933
   XZ=    -4.2994   YZ=    -2.4700   ZZ=    26.1395
   Eigenvalues:    22.7966    27.8269    31.5127
     14  H    Isotropic =    29.5472   Anisotropy =     7.7462
   XX=    26.7942   YX=     0.1822   ZX=    -1.6805
   XY=    -0.0379   YY=    28.0310   ZY=     1.3229
   XZ=    -2.3956   YZ=     1.8601   ZZ=    33.8163
   Eigenvalues:    26.1038    27.8264    34.7113
     15  H    Isotropic =    30.0325   Anisotropy =     8.2291
   XX=    31.2811   YX=    -2.2880   ZX=     1.7868
   XY=    -2.4299   YY=    28.4529   ZY=    -3.7222
   XZ=     1.5948   YZ=    -4.5489   ZZ=    30.3633
   Eigenvalues:    25.0454    29.5334    35.5185
     16  H    Isotropic =    30.8113   Anisotropy =     5.4178
   XX=    32.1439   YX=     1.6857   ZX=     0.5539
   XY=     2.1924   YY=    30.1359   ZY=     2.0835
   XZ=     1.0768   YZ=     3.0072   ZZ=    30.1540
   Eigenvalues:    27.4397    30.5710    34.4231
     17  H    Isotropic =    30.2943   Anisotropy =     9.6601
   XX=    30.2208   YX=     3.3733   ZX=    -0.6799
   XY=     4.0760   YY=    31.2392   ZY=    -4.5973
   XZ=    -0.6370   YZ=    -4.5253   ZZ=    29.4230
   Eigenvalues:    24.8755    29.2730    36.7344
     18  H    Isotropic =    30.5081   Anisotropy =     4.9655
   XX=    31.6556   YX=    -0.1249   ZX=     0.3784
   XY=    -0.5984   YY=    32.2613   ZY=     3.3504
   XZ=     0.1258   YZ=     2.8173   ZZ=    27.6075
   Eigenvalues:    26.0445    31.6615    33.8185
     19  H    Isotropic =    29.8409   Anisotropy =     8.6454
   XX=    29.2692   YX=    -1.6478   ZX=     2.7095
   XY=    -1.3487   YY=    32.0840   ZY=    -3.5939
   XZ=     3.5678   YZ=    -3.5511   ZZ=    28.1695
   Eigenvalues:    24.9541    28.9641    35.6045
     20  H    Isotropic =    30.3854   Anisotropy =     5.0215
   XX=    30.9958   YX=     0.2895   ZX=    -0.1889
   XY=     0.3048   YY=    26.5797   ZY=     0.8055
   XZ=    -0.3514   YZ=     1.1452   ZZ=    33.5807
   Eigenvalues:    26.4223    31.0008    33.7330
     21  H    Isotropic =    30.6388   Anisotropy =    10.8276
   XX=    34.5760   YX=    -2.6946   ZX=     4.6021
   XY=    -1.7136   YY=    28.8417   ZY=    -0.9173
   XZ=     4.6653   YZ=    -2.0678   ZZ=    28.4987
   Eigenvalues:    25.9647    28.0945    37.8572
     22  H    Isotropic =    31.0349   Anisotropy =     7.9894
   XX=    29.7761   YX=     0.9793   ZX=     1.2559
   XY=     0.3989   YY=    30.2441   ZY=     4.3377
   XZ=     0.4626   YZ=     4.2300   ZZ=    33.0845
   Eigenvalues:    27.1499    29.5936    36.3612
     23  H    Isotropic =    30.6091   Anisotropy =    10.7338
   XX=    33.8608   YX=     5.3882   ZX=    -1.2456
   XY=     5.0470   YY=    30.1281   ZY=    -2.0662
   XZ=    -0.3344   YZ=    -0.9147   ZZ=    27.8383
   Eigenvalues:    26.0795    27.9827    37.7649
     24  H    Isotropic =    31.3305   Anisotropy =    17.5797
   XX=    31.7807   YX=     3.4873   ZX=     4.4776
   XY=     3.4992   YY=    31.1309   ZY=     8.4296
   XZ=     6.1437   YZ=     8.5364   ZZ=    31.0798
   Eigenvalues:    22.3877    28.5535    43.0503
     25  H    Isotropic =    29.8047   Anisotropy =     5.7433
   XX=    32.1660   YX=     0.7311   ZX=     1.4273
   XY=     1.1352   YY=    27.2595   ZY=     1.9825
   XZ=     1.9571   YZ=     2.1234   ZZ=    29.9887
   Eigenvalues:    26.1589    29.6217    33.6336
     26  H    Isotropic =    31.0416   Anisotropy =     8.8659
   XX=    32.7748   YX=    -1.0221   ZX=     4.2712
   XY=    -1.5038   YY=    28.0961   ZY=    -0.8540
   XZ=     4.2078   YZ=    -0.2452   ZZ=    32.2539
   Eigenvalues:    27.5924    28.5802    36.9522
     27  H    Isotropic =    30.2122   Anisotropy =     8.2459
   XX=    29.9843   YX=    -0.5387   ZX=    -1.3661
   XY=     0.5159   YY=    34.5246   ZY=    -3.2522
   XZ=    -2.0793   YZ=    -3.3087   ZZ=    26.1278
   Eigenvalues:    24.5090    30.4182    35.7095
     28  H    Isotropic =    30.7807   Anisotropy =    10.3846
   XX=    31.8252   YX=    -4.4778   ZX=    -3.5504
   XY=    -4.9312   YY=    31.5002   ZY=     1.9213
   XZ=    -2.6903   YZ=     1.3659   ZZ=    29.0167
   Eigenvalues:    26.3274    28.3110    37.7038
     29  H    Isotropic =    31.0818   Anisotropy =     8.7414
   XX=    33.6129   YX=     4.0232   ZX=     1.7251
   XY=     4.1279   YY=    30.7649   ZY=     1.6324
   XZ=     0.8214   YZ=     0.9979   ZZ=    28.8674
   Eigenvalues:    27.7261    28.6097    36.9094
     30  H    Isotropic =    30.2848   Anisotropy =     8.7181
   XX=    29.7941   YX=    -0.3547   ZX=    -1.6887
   XY=    -1.7429   YY=    31.3964   ZY=    -5.5315
   XZ=    -1.2314   YZ=    -5.4586   ZZ=    29.6640
   Eigenvalues:    24.3749    30.3826    36.0969
     31  H    Isotropic =    30.7006   Anisotropy =    10.5868
   XX=    31.8958   YX=    -1.3705   ZX=    -5.6641
   XY=    -0.1728   YY=    28.2203   ZY=     0.1958
   XZ=    -5.7881   YZ=     0.9036   ZZ=    31.9856
   Eigenvalues:    26.2011    28.1421    37.7585
 End of Minotr Frequency-dependent properties file   721 does not exist.
 End of Minotr Frequency-dependent properties file   722 does not exist.

 **********************************************************************

            Population analysis using the SCF density.

 **********************************************************************

 Orbital symmetries:
       Occupied  (A) (A) (A) (A) (A) (A) (A) (A) (A) (A) (A) (A)
                 (A) (A) (A) (A) (A) (A) (A) (A) (A) (A) (A) (A)
                 (A) (A) (A) (A) (A) (A) (A) (A) (A) (A) (A) (A)
                 (A) (A) (A) (A) (A) (A) (A) (A)
       Virtual   (A) (A) (A) (A) (A) (A) (A) (A) (A) (A) (A) (A)
                 (A) (A) (A) (A) (A) (A) (A) (A) (A) (A) (A) (A)
                 (A) (A) (A) (A) (A) (A) (A) (A) (A) (A) (A) (A)
                 (A) (A) (A) (A) (A) (A) (A) (A) (A) (A) (A) (A)
                 (A) (A) (A) (A) (A) (A) (A) (A) (A) (A) (A) (A)
                 (A) (A) (A) (A) (A) (A) (A) (A) (A) (A) (A) (A)
                 (A) (A) (A) (A) (A) (A) (A) (A) (A) (A) (A) (A)
                 (A) (A) (A) (A) (A) (A) (A) (A) (A) (A) (A) (A)
                 (A) (A) (A) (A) (A) (A) (A) (A) (A) (A) (A) (A)
                 (A) (A) (A) (A) (A) (A) (A) (A) (A) (A) (A) (A)
                 (A) (A) (A) (A) (A) (A) (A) (A) (A) (A) (A) (A)
                 (A) (A) (A) (A) (A) (A) (A) (A) (A) (A) (A) (A)
                 (A) (A) (A) (A) (A) (A) (A) (A) (A) (A) (A) (A)
                 (A) (A) (A) (A) (A) (A) (A) (A) (A) (A) (A) (A)
                 (A) (A) (A) (A) (A) (A) (A) (A) (A) (A) (A) (A)
                 (A) (A) (A) (A) (A) (A) (A) (A) (A) (A) (A) (A)
                 (A) (A) (A) (A) (A) (A) (A) (A) (A) (A) (A) (A)
                 (A) (A) (A) (A) (A) (A) (A) (A) (A) (A) (A) (A)
                 (A) (A) (A) (A) (A) (A) (A) (A) (A) (A) (A) (A)
                 (A) (A) (A) (A) (A) (A) (A) (A) (A) (A) (A) (A)
                 (A) (A) (A) (A) (A) (A) (A) (A) (A) (A) (A) (A)
                 (A) (A) (A) (A) (A) (A) (A) (A) (A) (A) (A) (A)
                 (A)
 The electronic state is 1-A.
 Alpha  occ. eigenvalues --  -19.24387 -10.29389 -10.25526 -10.25058 -10.24369
 Alpha  occ. eigenvalues --  -10.23728 -10.23621 -10.23577 -10.23565 -10.23473
 Alpha  occ. eigenvalues --  -10.23032  -1.04901  -0.85891  -0.82030  -0.76545
 Alpha  occ. eigenvalues --   -0.75547  -0.70316  -0.69396  -0.62469  -0.61994
 Alpha  occ. eigenvalues --   -0.58768  -0.55387  -0.50873  -0.50419  -0.46965
 Alpha  occ. eigenvalues --   -0.45874  -0.44759  -0.43535  -0.42909  -0.40514
 Alpha  occ. eigenvalues --   -0.40191  -0.39419  -0.38950  -0.38604  -0.37672
 Alpha  occ. eigenvalues --   -0.36979  -0.35703  -0.34383  -0.33867  -0.33344
 Alpha  occ. eigenvalues --   -0.31373  -0.30961  -0.30363  -0.27504
 Alpha virt. eigenvalues --    0.00657   0.01809   0.02017   0.02335   0.03893
 Alpha virt. eigenvalues --    0.04395   0.04597   0.05085   0.05177   0.06687
 Alpha virt. eigenvalues --    0.07398   0.07429   0.07972   0.08620   0.08899
 Alpha virt. eigenvalues --    0.09586   0.09972   0.10924   0.11142   0.11572
 Alpha virt. eigenvalues --    0.11913   0.12814   0.13527   0.14353   0.14683
 Alpha virt. eigenvalues --    0.15666   0.16004   0.16419   0.16961   0.17477
 Alpha virt. eigenvalues --    0.17866   0.18371   0.19014   0.19464   0.19924
 Alpha virt. eigenvalues --    0.20209   0.20597   0.21041   0.21564   0.22140
 Alpha virt. eigenvalues --    0.22663   0.22955   0.23587   0.24099   0.24900
 Alpha virt. eigenvalues --    0.25302   0.25372   0.26143   0.27058   0.27646
 Alpha virt. eigenvalues --    0.28208   0.28704   0.29060   0.29927   0.30371
 Alpha virt. eigenvalues --    0.30970   0.31590   0.32084   0.32616   0.33344
 Alpha virt. eigenvalues --    0.33700   0.34468   0.35705   0.36397   0.36803
 Alpha virt. eigenvalues --    0.38218   0.38680   0.39114   0.39704   0.41761
 Alpha virt. eigenvalues --    0.42295   0.43607   0.45752   0.48820   0.54202
 Alpha virt. eigenvalues --    0.63186   0.64989   0.65614   0.66477   0.67297
 Alpha virt. eigenvalues --    0.68130   0.69352   0.70217   0.70963   0.71523
 Alpha virt. eigenvalues --    0.73693   0.73931   0.75116   0.75559   0.76829
 Alpha virt. eigenvalues --    0.78677   0.80368   0.81745   0.83492   0.84263
 Alpha virt. eigenvalues --    0.85659   0.88795   0.89947   0.90207   0.92311
 Alpha virt. eigenvalues --    0.94152   0.96402   0.99201   1.00366   1.00626
 Alpha virt. eigenvalues --    1.01218   1.01742   1.02636   1.04128   1.04607
 Alpha virt. eigenvalues --    1.06407   1.07256   1.09330   1.09863   1.10191
 Alpha virt. eigenvalues --    1.11934   1.14250   1.15377   1.15917   1.16457
 Alpha virt. eigenvalues --    1.18064   1.18707   1.19660   1.20028   1.21399
 Alpha virt. eigenvalues --    1.24422   1.26553   1.27052   1.28173   1.31238
 Alpha virt. eigenvalues --    1.36270   1.39878   1.40775   1.44406   1.45016
 Alpha virt. eigenvalues --    1.45904   1.49554   1.53741   1.55442   1.58697
 Alpha virt. eigenvalues --    1.59084   1.60704   1.62205   1.64696   1.65983
 Alpha virt. eigenvalues --    1.69313   1.70703   1.74024   1.74858   1.81470
 Alpha virt. eigenvalues --    1.82654   1.83040   1.85368   1.87712   1.88723
 Alpha virt. eigenvalues --    1.89570   1.91207   1.91575   1.92324   1.95084
 Alpha virt. eigenvalues --    1.97140   1.97805   2.00782   2.02040   2.04219
 Alpha virt. eigenvalues --    2.05174   2.05494   2.06406   2.07208   2.08214
 Alpha virt. eigenvalues --    2.09588   2.11215   2.12719   2.14130   2.14845
 Alpha virt. eigenvalues --    2.16156   2.17551   2.17724   2.18496   2.20301
 Alpha virt. eigenvalues --    2.20959   2.22257   2.24028   2.26715   2.29275
 Alpha virt. eigenvalues --    2.32787   2.33680   2.34383   2.36087   2.36817
 Alpha virt. eigenvalues --    2.38746   2.40700   2.42237   2.44437   2.45828
 Alpha virt. eigenvalues --    2.47620   2.50826   2.52498   2.54667   2.56807
 Alpha virt. eigenvalues --    2.59374   2.59959   2.61846   2.63724   2.66475
 Alpha virt. eigenvalues --    2.67869   2.68671   2.69679   2.70384   2.72674
 Alpha virt. eigenvalues --    2.74932   2.76444   2.77245   2.77792   2.79041
 Alpha virt. eigenvalues --    2.81523   2.82435   2.83335   2.84639   2.86558
 Alpha virt. eigenvalues --    2.87393   2.88245   2.90292   2.91022   2.92509
 Alpha virt. eigenvalues --    2.92995   2.93144   2.94853   2.98029   2.99099
 Alpha virt. eigenvalues --    2.99826   3.02527   3.06739   3.13016   3.28785
 Alpha virt. eigenvalues --    3.29765   3.30282   3.36352   3.37871   3.39347
 Alpha virt. eigenvalues --    3.40887   3.43665   3.47944   3.48589   3.50094
 Alpha virt. eigenvalues --    3.50729   3.53498   3.54596   3.55685   3.56693
 Alpha virt. eigenvalues --    3.58591   3.59973   3.60869   3.64336   4.36208
 Alpha virt. eigenvalues --    4.43060   4.45036   4.56694   4.58209   4.62097
 Alpha virt. eigenvalues --    4.63666   4.74329   4.82849   4.89503   4.94019
          Condensed to atoms (all electrons):
              1          2          3          4          5          6
     1  C    6.543014   0.024963   0.104675  -0.095114  -0.097132  -0.056818
     2  C    0.024963   7.225795   0.278133  -1.903777   0.006102   0.021993
     3  C    0.104675   0.278133   6.020647  -0.711468   0.274474  -0.113443
     4  C   -0.095114  -1.903777  -0.711468   9.680434  -0.502688  -0.196044
     5  C   -0.097132   0.006102   0.274474  -0.502688   5.919066  -0.219647
     6  C   -0.056818   0.021993  -0.113443  -0.196044  -0.219647   6.140808
     7  C   -0.439561  -0.151629  -0.053799   0.050766   0.141253   0.067231
     8  O    0.019795   0.003727  -0.071626   0.270540  -0.043157  -0.141001
     9  C   -0.032183   0.382816   0.261824  -1.209842   0.084636   0.072945
    10  C    0.013708  -0.161777  -0.095973   0.350059  -0.015320   0.001499
    11  C    0.004058  -0.036827  -0.033337   0.143000  -0.032613   0.006967
    12  H    0.314443  -0.047146  -0.036037   0.018837   0.008980  -0.008110
    13  H    0.006019   0.133006  -0.015025   0.162247  -0.015230   0.029127
    14  H   -0.000251  -0.063864   0.413056  -0.008787  -0.046177   0.004725
    15  H    0.023008   0.014905   0.376710  -0.015544  -0.032178  -0.012562
    16  H   -0.003827   0.128590   0.011675   0.132379   0.034597  -0.010882
    17  H   -0.019592  -0.005838  -0.016555   0.045659   0.308349   0.039180
    18  H   -0.083165  -0.037753  -0.088397   0.050492   0.451396   0.011126
    19  H   -0.032655  -0.011762  -0.003148   0.048600   0.032602   0.314627
    20  H   -0.078702  -0.096673  -0.022223   0.071428   0.007439   0.423621
    21  H   -0.130176  -0.004600  -0.006447   0.005210   0.023773   0.014753
    22  H   -0.105816  -0.008335  -0.007448   0.006416   0.010466   0.001647
    23  H   -0.132505  -0.010838  -0.001393   0.004308   0.003962   0.032648
    24  H   -0.013748   0.168238  -0.014579  -0.153761   0.001609   0.024933
    25  H    0.008739   0.031627  -0.033550  -0.025228   0.010993  -0.015001
    26  H    0.001213   0.007206  -0.005146  -0.001530   0.000339  -0.001845
    27  H   -0.002144   0.000815  -0.015914  -0.005750   0.010682   0.000787
    28  H    0.000157  -0.002661  -0.005338   0.045215  -0.001152   0.000592
    29  H    0.000804   0.008994   0.000869  -0.013907   0.000366  -0.000641
    30  H    0.000391  -0.030908   0.007663   0.011512  -0.001164   0.010699
    31  H   -0.000076   0.005676  -0.005399   0.032476  -0.000013  -0.002145
              7          8          9         10         11         12
     1  C   -0.439561   0.019795  -0.032183   0.013708   0.004058   0.314443
     2  C   -0.151629   0.003727   0.382816  -0.161777  -0.036827  -0.047146
     3  C   -0.053799  -0.071626   0.261824  -0.095973  -0.033337  -0.036037
     4  C    0.050766   0.270540  -1.209842   0.350059   0.143000   0.018837
     5  C    0.141253  -0.043157   0.084636  -0.015320  -0.032613   0.008980
     6  C    0.067231  -0.141001   0.072945   0.001499   0.006967  -0.008110
     7  C    5.716319   0.018553  -0.025599   0.003644   0.004758   0.020898
     8  O    0.018553   8.321957  -0.030887   0.005799   0.005552   0.006946
     9  C   -0.025599  -0.030887   6.953436  -0.192754  -0.189978  -0.001518
    10  C    0.003644   0.005799  -0.192754   5.544943  -0.095752   0.000218
    11  C    0.004758   0.005552  -0.189978  -0.095752   5.550063  -0.000182
    12  H    0.020898   0.006946  -0.001518   0.000218  -0.000182   0.546338
    13  H    0.003731  -0.038330  -0.026817   0.009570   0.007934  -0.000059
    14  H    0.002129   0.006078   0.016504   0.002301  -0.001787   0.003148
    15  H   -0.001859  -0.000618  -0.045372   0.015672   0.000523   0.000022
    16  H   -0.000122  -0.019795   0.017754  -0.023417  -0.005686  -0.000055
    17  H   -0.018731   0.000502  -0.005127   0.000851   0.000672  -0.004747
    18  H    0.004661   0.000375  -0.002927  -0.002142   0.002636   0.005043
    19  H   -0.008572  -0.003541  -0.002135   0.000871  -0.002241  -0.004069
    20  H    0.016734   0.009793  -0.025817   0.004532  -0.001287   0.004927
    21  H    0.457688  -0.000115  -0.000769   0.000152  -0.000140  -0.003695
    22  H    0.452593   0.000085  -0.001291   0.000427   0.000014   0.004618
    23  H    0.462604   0.000081  -0.000347  -0.000124   0.000107  -0.003595
    24  H   -0.003376   0.204638   0.025381  -0.002216  -0.002059  -0.000199
    25  H    0.002903  -0.000637   0.288892  -0.010214   0.009890  -0.000029
    26  H    0.000013  -0.000048  -0.098971   0.450276  -0.004592   0.000000
    27  H    0.000341  -0.000007  -0.056041   0.433145  -0.004956   0.000001
    28  H   -0.000059   0.000012  -0.127735   0.445438   0.003364   0.000000
    29  H    0.000036  -0.000087  -0.100141  -0.006730   0.458451   0.000000
    30  H    0.000099   0.000375  -0.069326  -0.000024   0.430138   0.000001
    31  H    0.000039  -0.000026  -0.121846  -0.004083   0.454826   0.000000
             13         14         15         16         17         18
     1  C    0.006019  -0.000251   0.023008  -0.003827  -0.019592  -0.083165
     2  C    0.133006  -0.063864   0.014905   0.128590  -0.005838  -0.037753
     3  C   -0.015025   0.413056   0.376710   0.011675  -0.016555  -0.088397
     4  C    0.162247  -0.008787  -0.015544   0.132379   0.045659   0.050492
     5  C   -0.015230  -0.046177  -0.032178   0.034597   0.308349   0.451396
     6  C    0.029127   0.004725  -0.012562  -0.010882   0.039180   0.011126
     7  C    0.003731   0.002129  -0.001859  -0.000122  -0.018731   0.004661
     8  O   -0.038330   0.006078  -0.000618  -0.019795   0.000502   0.000375
     9  C   -0.026817   0.016504  -0.045372   0.017754  -0.005127  -0.002927
    10  C    0.009570   0.002301   0.015672  -0.023417   0.000851  -0.002142
    11  C    0.007934  -0.001787   0.000523  -0.005686   0.000672   0.002636
    12  H   -0.000059   0.003148   0.000022  -0.000055  -0.004747   0.005043
    13  H    0.639651  -0.000045  -0.000108  -0.006173   0.000014  -0.000048
    14  H   -0.000045   0.531374  -0.028952  -0.005064  -0.004036   0.004646
    15  H   -0.000108  -0.028952   0.562898  -0.002391  -0.003074  -0.003288
    16  H   -0.006173  -0.005064  -0.002391   0.594831  -0.000118  -0.000078
    17  H    0.000014  -0.004036  -0.003074  -0.000118   0.554599  -0.030301
    18  H   -0.000048   0.004646  -0.003288  -0.000078  -0.030301   0.556547
    19  H   -0.004855  -0.000031   0.000011  -0.000132  -0.000128  -0.000036
    20  H   -0.002921   0.000083  -0.000011  -0.000050  -0.000039   0.002795
    21  H   -0.000001   0.000000   0.000002   0.000000   0.000006  -0.000004
    22  H   -0.000002   0.000002   0.000001   0.000000  -0.000164   0.003368
    23  H    0.000002  -0.000002  -0.000003   0.000000   0.002777  -0.000280
    24  H   -0.007062   0.000188  -0.000032   0.007278  -0.000006   0.000002
    25  H   -0.000806  -0.000088   0.000123   0.005450   0.000005  -0.001209
    26  H   -0.000011  -0.000039   0.000104   0.003483   0.000000  -0.000007
    27  H    0.000000   0.000118  -0.000562  -0.000018  -0.000014   0.000886
    28  H   -0.000001  -0.000003   0.000107  -0.000063   0.000000  -0.000026
    29  H   -0.000070  -0.000005   0.000005   0.004155   0.000000  -0.000002
    30  H    0.001869  -0.000001   0.000000  -0.000208   0.000000   0.000004
    31  H   -0.000014   0.000002  -0.000004   0.000000   0.000000   0.000002
             19         20         21         22         23         24
     1  C   -0.032655  -0.078702  -0.130176  -0.105816  -0.132505  -0.013748
     2  C   -0.011762  -0.096673  -0.004600  -0.008335  -0.010838   0.168238
     3  C   -0.003148  -0.022223  -0.006447  -0.007448  -0.001393  -0.014579
     4  C    0.048600   0.071428   0.005210   0.006416   0.004308  -0.153761
     5  C    0.032602   0.007439   0.023773   0.010466   0.003962   0.001609
     6  C    0.314627   0.423621   0.014753   0.001647   0.032648   0.024933
     7  C   -0.008572   0.016734   0.457688   0.452593   0.462604  -0.003376
     8  O   -0.003541   0.009793  -0.000115   0.000085   0.000081   0.204638
     9  C   -0.002135  -0.025817  -0.000769  -0.001291  -0.000347   0.025381
    10  C    0.000871   0.004532   0.000152   0.000427  -0.000124  -0.002216
    11  C   -0.002241  -0.001287  -0.000140   0.000014   0.000107  -0.002059
    12  H   -0.004069   0.004927  -0.003695   0.004618  -0.003595  -0.000199
    13  H   -0.004855  -0.002921  -0.000001  -0.000002   0.000002  -0.007062
    14  H   -0.000031   0.000083   0.000000   0.000002  -0.000002   0.000188
    15  H    0.000011  -0.000011   0.000002   0.000001  -0.000003  -0.000032
    16  H   -0.000132  -0.000050   0.000000   0.000000   0.000000   0.007278
    17  H   -0.000128  -0.000039   0.000006  -0.000164   0.002777  -0.000006
    18  H   -0.000036   0.002795  -0.000004   0.003368  -0.000280   0.000002
    19  H    0.531116  -0.027383   0.002500  -0.000068  -0.000021  -0.000057
    20  H   -0.027383   0.549870  -0.000377   0.003417   0.000014  -0.000272
    21  H    0.002500  -0.000377   0.532931  -0.028556  -0.025231   0.000000
    22  H   -0.000068   0.003417  -0.028556   0.537962  -0.028277   0.000000
    23  H   -0.000021   0.000014  -0.025231  -0.028277   0.534512   0.000000
    24  H   -0.000057  -0.000272   0.000000   0.000000   0.000000   0.411898
    25  H   -0.000049  -0.000066   0.000000  -0.000024  -0.000001   0.000020
    26  H    0.000000  -0.000001   0.000000   0.000000   0.000000   0.000002
    27  H    0.000000   0.000012   0.000000   0.000001   0.000000   0.000000
    28  H    0.000000   0.000000   0.000000   0.000000   0.000000   0.000000
    29  H    0.000000  -0.000007   0.000000   0.000000   0.000000   0.000026
    30  H   -0.000002   0.000360   0.000000   0.000000   0.000000   0.000007
    31  H    0.000000  -0.000017   0.000000   0.000000   0.000000   0.000000
             25         26         27         28         29         30
     1  C    0.008739   0.001213  -0.002144   0.000157   0.000804   0.000391
     2  C    0.031627   0.007206   0.000815  -0.002661   0.008994  -0.030908
     3  C   -0.033550  -0.005146  -0.015914  -0.005338   0.000869   0.007663
     4  C   -0.025228  -0.001530  -0.005750   0.045215  -0.013907   0.011512
     5  C    0.010993   0.000339   0.010682  -0.001152   0.000366  -0.001164
     6  C   -0.015001  -0.001845   0.000787   0.000592  -0.000641   0.010699
     7  C    0.002903   0.000013   0.000341  -0.000059   0.000036   0.000099
     8  O   -0.000637  -0.000048  -0.000007   0.000012  -0.000087   0.000375
     9  C    0.288892  -0.098971  -0.056041  -0.127735  -0.100141  -0.069326
    10  C   -0.010214   0.450276   0.433145   0.445438  -0.006730  -0.000024
    11  C    0.009890  -0.004592  -0.004956   0.003364   0.458451   0.430138
    12  H   -0.000029   0.000000   0.000001   0.000000   0.000000   0.000001
    13  H   -0.000806  -0.000011   0.000000  -0.000001  -0.000070   0.001869
    14  H   -0.000088  -0.000039   0.000118  -0.000003  -0.000005  -0.000001
    15  H    0.000123   0.000104  -0.000562   0.000107   0.000005   0.000000
    16  H    0.005450   0.003483  -0.000018  -0.000063   0.004155  -0.000208
    17  H    0.000005   0.000000  -0.000014   0.000000   0.000000   0.000000
    18  H   -0.001209  -0.000007   0.000886  -0.000026  -0.000002   0.000004
    19  H   -0.000049   0.000000   0.000000   0.000000   0.000000  -0.000002
    20  H   -0.000066  -0.000001   0.000012   0.000000  -0.000007   0.000360
    21  H    0.000000   0.000000   0.000000   0.000000   0.000000   0.000000
    22  H   -0.000024   0.000000   0.000001   0.000000   0.000000   0.000000
    23  H   -0.000001   0.000000   0.000000   0.000000   0.000000   0.000000
    24  H    0.000020   0.000002   0.000000   0.000000   0.000026   0.000007
    25  H    0.576396   0.005007  -0.004348  -0.002761   0.004959  -0.004133
    26  H    0.005007   0.529746  -0.028084  -0.027607   0.002830  -0.000037
    27  H   -0.004348  -0.028084   0.532627  -0.025835  -0.000010  -0.000138
    28  H   -0.002761  -0.027607  -0.025835   0.532000  -0.000131   0.000127
    29  H    0.004959   0.002830  -0.000010  -0.000131   0.530671  -0.028980
    30  H   -0.004133  -0.000037  -0.000138   0.000127  -0.028980   0.540458
    31  H   -0.003251  -0.000101   0.000110   0.003040  -0.027616  -0.025889
             31
     1  C   -0.000076
     2  C    0.005676
     3  C   -0.005399
     4  C    0.032476
     5  C   -0.000013
     6  C   -0.002145
     7  C    0.000039
     8  O   -0.000026
     9  C   -0.121846
    10  C   -0.004083
    11  C    0.454826
    12  H    0.000000
    13  H   -0.000014
    14  H    0.000002
    15  H   -0.000004
    16  H    0.000000
    17  H    0.000000
    18  H    0.000002
    19  H    0.000000
    20  H   -0.000017
    21  H    0.000000
    22  H    0.000000
    23  H    0.000000
    24  H    0.000000
    25  H   -0.003251
    26  H   -0.000101
    27  H    0.000110
    28  H    0.003040
    29  H   -0.027616
    30  H   -0.025889
    31  H    0.528487
 Mulliken atomic charges:
              1
     1  C    0.258479
     2  C    0.131804
     3  C   -0.393483
     4  C   -0.286137
     5  C   -0.324612
     6  C   -0.441768
     7  C   -0.723687
     8  O   -0.524933
     9  C    0.263236
    10  C   -0.672578
    11  C   -0.671516
    12  H    0.175022
    13  H    0.124410
    14  H    0.174779
    15  H    0.152468
    16  H    0.137886
    17  H    0.155854
    18  H    0.155686
    19  H    0.170559
    20  H    0.160822
    21  H    0.163097
    22  H    0.158963
    23  H    0.161602
    24  H    0.353147
    25  H    0.156390
    26  H    0.167801
    27  H    0.164298
    28  H    0.163322
    29  H    0.166158
    30  H    0.157107
    31  H    0.165823
 Sum of Mulliken atomic charges =   0.00000
 Mulliken charges with hydrogens summed into heavy atoms:
              1
     1  C    0.433501
     2  C    0.256214
     3  C   -0.066236
     4  C   -0.148252
     5  C   -0.013072
     6  C   -0.110387
     7  C   -0.240025
     8  O   -0.171786
     9  C    0.419626
    10  C   -0.177156
    11  C   -0.182428
 Sum of Mulliken charges with hydrogens summed into heavy atoms =   0.00000
 Electronic spatial extent (au):  <R**2>=           2052.8509
 Charge=              0.0000 electrons
 Dipole moment (field-independent basis, Debye):
    X=              1.7375    Y=             -0.4143    Z=             -0.1284  Tot=              1.7908
 Quadrupole moment (field-independent basis, Debye-Ang):
   XX=            -73.4270   YY=            -73.0840   ZZ=            -70.6790
   XY=              3.9296   XZ=              1.5693   YZ=              0.6640
 Traceless Quadrupole moment (field-independent basis, Debye-Ang):
   XX=             -1.0303   YY=             -0.6873   ZZ=              1.7177
   XY=              3.9296   XZ=              1.5693   YZ=              0.6640
 Octapole moment (field-independent basis, Debye-Ang**2):
  XXX=             -2.2796  YYY=              9.7800  ZZZ=              7.1656  XYY=              9.9360
  XXY=              0.6749  XXZ=              1.3811  XZZ=              2.5556  YZZ=              7.2097
  YYZ=              5.2842  XYZ=              8.0114
 Hexadecapole moment (field-independent basis, Debye-Ang**3):
 XXXX=          -1701.8611 YYYY=           -703.5981 ZZZZ=           -447.5240 XXXY=            -10.7342
 XXXZ=             -8.4283 YYYX=             23.0281 YYYZ=             21.5301 ZZZX=             -4.1380
 ZZZY=             21.1622 XXYY=           -410.0832 XXZZ=           -356.2041 YYZZ=           -174.5048
 XXYZ=             -1.0794 YYXZ=              8.1844 ZZXY=              0.4968
 N-N= 6.966349032199D+02 E-N=-2.478645042149D+03  KE= 4.636969048162D+02
 1\1\GINC-COMPUTE-10-1\SP\RmPW1PW91\6-31+G(d,p)\C10H20O1\ASAROTTI.IQUIR
 \19-Sep-2024\0\\# mPW1PW91/6-31+G** nmr scrf=(pcm,solvent=benzene)\\co
 mment\\0,1\C,0,-2.043445,-0.28175,-0.066522\C,0,-0.079987,1.371281,-0.
 077089\C,0,-0.007864,-0.641926,1.417381\C,0,0.856923,0.317252,0.569248
 \C,0,-1.116917,-1.31764,0.595611\C,0,-1.218661,0.73222,-0.879971\C,0,-
 3.118727,-0.945827,-0.93343\O,0,-0.704085,2.183442,0.928312\C,0,1.7903
 42,-0.387623,-0.459504\C,0,2.600338,-1.531392,0.176608\C,0,2.762098,0.
 603931,-1.126229\H,0,-2.544311,0.275747,0.736855\H,0,0.497284,2.024208
 ,-0.747286\H,0,-0.475527,-0.052759,2.215311\H,0,0.618105,-1.391806,1.9
 11602\H,0,1.525204,0.862866,1.259088\H,0,-1.706158,-1.981479,1.242526\
 H,0,-0.67582,-1.960466,-0.181582\H,0,-1.868719,1.533539,-1.252925\H,0,
 -0.791942,0.236558,-1.763434\H,0,-3.793665,-0.20106,-1.372646\H,0,-2.6
 67035,-1.512195,-1.75894\H,0,-3.728018,-1.644196,-0.346706\H,0,0.00222
 ,2.57199,1.468127\H,0,1.169603,-0.828797,-1.252025\H,0,3.183704,-1.172
 53,1.035129\H,0,1.964856,-2.351576,0.524073\H,0,3.306725,-1.949873,-0.
 550018\H,0,3.393729,1.095475,-0.373938\H,0,2.250111,1.387119,-1.693921
 \H,0,3.427732,0.080541,-1.822403\\Version=EM64L-G09RevC.01\State=1-A\H
 F=-468.2817877\RMSD=6.773e-09\Dipole=0.6835853,-0.163008,-0.0505207\Qu
 adrupole=-0.766039,-0.5110224,1.2770614,2.9215927,1.1667384,0.4936596\
 PG=C01 [X(C10H20O1)]\\@


 I DON'T EXACTLY UNDERSTAND WHAT YOU ARE SAYING,
 BUT YOU ARE ABSOLUTELY RIGHT.
     M.S.GORDON, IN A NDSU FACULTY MEETING
 Job cpu time:  0 days  0 hours 40 minutes 19.1 seconds.
 File lengths (MBytes):  RWF=    123 Int=      0 D2E=      0 Chk=      7 Scr=      1
 Normal termination of Gaussian 09 at Thu Sep 19 09:03:57 2024.
