 Entering Gaussian System, Link 0=g09
 Input=/home/asarotti.iquir/SCF2/02_Mentol13_OptB_NMR_benzene.gjc
 Output=/home/asarotti.iquir/SCF2/02_Mentol13_OptB_NMR_benzene.log
 Initial command:
 /opt/ohpc/pub/apps/software/Gaussian/09/AMD64.SSE4a-enabled/g09/l1.exe /local/asarotti.iquir/Gau-1837712.inp -scrdir=/local/asarotti.iquir/
 Entering Link 1 = /opt/ohpc/pub/apps/software/Gaussian/09/AMD64.SSE4a-enabled/g09/l1.exe PID=   1837713.
  
 Copyright (c) 1988,1990,1992,1993,1995,1998,2003,2009,2011,
            Gaussian, Inc.  All Rights Reserved.
  
 This is part of the Gaussian(R) 09 program.  It is based on
 the Gaussian(R) 03 system (copyright 2003, Gaussian, Inc.),
 the Gaussian(R) 98 system (copyright 1998, Gaussian, Inc.),
 the Gaussian(R) 94 system (copyright 1995, Gaussian, Inc.),
 the Gaussian 92(TM) system (copyright 1992, Gaussian, Inc.),
 the Gaussian 90(TM) system (copyright 1990, Gaussian, Inc.),
 the Gaussian 88(TM) system (copyright 1988, Gaussian, Inc.),
 the Gaussian 86(TM) system (copyright 1986, Carnegie Mellon
 University), and the Gaussian 82(TM) system (copyright 1983,
 Carnegie Mellon University). Gaussian is a federally registered
 trademark of Gaussian, Inc.
  
 This software contains proprietary and confidential information,
 including trade secrets, belonging to Gaussian, Inc.
  
 This software is provided under written license and may be
 used, copied, transmitted, or stored only in accord with that
 written license.
  
 The following legend is applicable only to US Government
 contracts under FAR:
  
                    RESTRICTED RIGHTS LEGEND
  
 Use, reproduction and disclosure by the US Government is
 subject to restrictions as set forth in subparagraphs (a)
 and (c) of the Commercial Computer Software - Restricted
 Rights clause in FAR 52.227-19.
  
 Gaussian, Inc.
 340 Quinnipiac St., Bldg. 40, Wallingford CT 06492
  
  
 ---------------------------------------------------------------
 Warning -- This program may not be used in any manner that
 competes with the business of Gaussian, Inc. or will provide
 assistance to any competitor of Gaussian, Inc.  The licensee
 of this program is prohibited from giving any competitor of
 Gaussian, Inc. access to this program.  By using this program,
 the user acknowledges that Gaussian, Inc. is engaged in the
 business of creating and licensing software in the field of
 computational chemistry and represents and warrants to the
 licensee that it is not a competitor of Gaussian, Inc. and that
 it will not use this program in any manner prohibited above.
 ---------------------------------------------------------------
  

 Cite this work as:
 Gaussian 09, Revision C.01,
 M. J. Frisch, G. W. Trucks, H. B. Schlegel, G. E. Scuseria, 
 M. A. Robb, J. R. Cheeseman, G. Scalmani, V. Barone, B. Mennucci, 
 G. A. Petersson, H. Nakatsuji, M. Caricato, X. Li, H. P. Hratchian, 
 A. F. Izmaylov, J. Bloino, G. Zheng, J. L. Sonnenberg, M. Hada, 
 M. Ehara, K. Toyota, R. Fukuda, J. Hasegawa, M. Ishida, T. Nakajima, 
 Y. Honda, O. Kitao, H. Nakai, T. Vreven, J. A. Montgomery, Jr., 
 J. E. Peralta, F. Ogliaro, M. Bearpark, J. J. Heyd, E. Brothers, 
 K. N. Kudin, V. N. Staroverov, T. Keith, R. Kobayashi, J. Normand, 
 K. Raghavachari, A. Rendell, J. C. Burant, S. S. Iyengar, J. Tomasi, 
 M. Cossi, N. Rega, J. M. Millam, M. Klene, J. E. Knox, J. B. Cross, 
 V. Bakken, C. Adamo, J. Jaramillo, R. Gomperts, R. E. Stratmann, 
 O. Yazyev, A. J. Austin, R. Cammi, C. Pomelli, J. W. Ochterski, 
 R. L. Martin, K. Morokuma, V. G. Zakrzewski, G. A. Voth, 
 P. Salvador, J. J. Dannenberg, S. Dapprich, A. D. Daniels, 
 O. Farkas, J. B. Foresman, J. V. Ortiz, J. Cioslowski, 
 and D. J. Fox, Gaussian, Inc., Wallingford CT, 2010.
 
 ******************************************
 Gaussian 09:  AM64L-G09RevC.01 23-Sep-2011
                19-Sep-2024 
 ******************************************
 %nprocshared=4
 Will use up to    4 processors via shared memory.
 %mem=100mw
 --------------------------------------------------
 # mPW1PW91/6-31+G** nmr scrf=(pcm,solvent=benzene)
 --------------------------------------------------
 1/38=1/1;
 2/12=2,17=6,18=5,40=1/2;
 3/5=1,6=6,7=111,11=2,16=1,25=1,30=1,70=2201,72=12,74=-7/1,2,8,3;
 4//1;
 5/5=2,38=5,53=12/2;
 8/6=1,10=90,11=11/1;
 10/13=100,45=16/2;
 6/7=2,8=2,9=2,10=2,28=1/1;
 99/9=1/99;
 -------
 comment
 -------
 Charge =  0 Multiplicity = 1
 Symbolic Z-Matrix:
 6                    -2.04776  -0.04816   0.00172 
 6                     0.17326   1.13561  -0.49653 
 6                    -0.12557  -0.18526   1.66441 
 6                     0.89825   0.37604   0.64541 
 6                    -1.33128  -0.91421   1.05096 
 6                    -1.04472   0.40269  -1.07339 
 6                    -3.24429  -0.77682  -0.61906 
 8                    -0.33563   2.38949  -0.01338 
 6                     2.00934  -0.62724   0.20232 
 6                     3.24647   0.11591  -0.33611 
 6                     1.60572  -1.7329   -0.78798 
 1                    -2.4162    0.8555    0.50642 
 1                     0.88431   1.32955  -1.31551 
 1                    -0.51233   0.66294   2.24378 
 1                     0.39194  -0.83842   2.37968 
 1                     1.46119   1.15079   1.19172 
 1                    -2.03288  -1.18556   1.85173 
 1                    -1.02111  -1.86038   0.58629 
 1                    -1.5335    1.07883  -1.78592 
 1                    -0.70579  -0.4707   -1.64412 
 1                    -3.7646   -0.14224  -1.34671 
 1                    -2.92508  -1.68866  -1.14131 
 1                    -3.97109  -1.07151   0.14785 
 1                     0.40876   2.88016   0.36832 
 1                     2.32401  -1.13062   1.12907 
 1                     3.03197   0.63625  -1.27772 
 1                     3.6132    0.86035   0.38107 
 1                     4.06508  -0.58616  -0.53381 
 1                     1.34105  -1.32326  -1.76983 
 1                     0.761    -2.32935  -0.43225 
 1                     2.44869  -2.41746  -0.94228 
 
                          Input orientation:                          
 ---------------------------------------------------------------------
 Center     Atomic      Atomic             Coordinates (Angstroms)
 Number     Number       Type             X           Y           Z
 ---------------------------------------------------------------------
      1          6           0       -2.047762   -0.048158    0.001717
      2          6           0        0.173263    1.135606   -0.496527
      3          6           0       -0.125570   -0.185257    1.664414
      4          6           0        0.898248    0.376036    0.645406
      5          6           0       -1.331277   -0.914209    1.050959
      6          6           0       -1.044724    0.402685   -1.073386
      7          6           0       -3.244287   -0.776815   -0.619056
      8          8           0       -0.335633    2.389489   -0.013375
      9          6           0        2.009335   -0.627237    0.202318
     10          6           0        3.246467    0.115914   -0.336110
     11          6           0        1.605717   -1.732895   -0.787981
     12          1           0       -2.416195    0.855498    0.506422
     13          1           0        0.884305    1.329552   -1.315515
     14          1           0       -0.512327    0.662943    2.243782
     15          1           0        0.391942   -0.838418    2.379680
     16          1           0        1.461190    1.150790    1.191723
     17          1           0       -2.032879   -1.185558    1.851729
     18          1           0       -1.021113   -1.860381    0.586294
     19          1           0       -1.533504    1.078830   -1.785917
     20          1           0       -0.705794   -0.470697   -1.644118
     21          1           0       -3.764598   -0.142241   -1.346707
     22          1           0       -2.925081   -1.688655   -1.141308
     23          1           0       -3.971089   -1.071506    0.147849
     24          1           0        0.408761    2.880164    0.368321
     25          1           0        2.324005   -1.130623    1.129066
     26          1           0        3.031965    0.636249   -1.277722
     27          1           0        3.613198    0.860345    0.381072
     28          1           0        4.065079   -0.586161   -0.533812
     29          1           0        1.341048   -1.323259   -1.769834
     30          1           0        0.761001   -2.329347   -0.432249
     31          1           0        2.448687   -2.417458   -0.942277
 ---------------------------------------------------------------------
                    Distance matrix (angstroms):
                    1          2          3          4          5
     1  C    0.000000
     2  C    2.565638   0.000000
     3  C    2.545227   2.550225   0.000000
     4  C    3.045201   1.551309   1.549719   0.000000
     5  C    1.537629   2.976591   1.536694   2.607678   0.000000
     6  C    1.537918   1.534090   2.947214   2.594243   2.515783
     7  C    1.532309   3.918165   3.910316   4.482023   2.543115
     8  O    2.978882   1.436883   3.080328   2.451621   3.610891
     9  C    4.103122   2.639538   2.625051   1.561217   3.458646
    10  C    5.307533   3.241927   3.932357   2.558353   4.892939
    11  C    4.099984   3.219498   3.377392   2.646262   3.560601
    12  H    1.098665   2.790996   2.769671   3.351825   2.146027
    13  H    3.497171   1.101788   3.492058   2.180504   3.942520
    14  H    2.808929   2.864042   1.097584   2.151010   2.140307
    15  H    3.497338   3.495305   1.098200   2.176913   2.177321
    16  H    3.894398   2.123482   2.127502   1.102547   3.475904
    17  H    2.171738   3.971042   2.161832   3.533454   1.098685
    18  H    2.163305   3.402201   2.184120   2.947711   1.098798
    19  H    2.174902   2.139814   3.935096   3.509796   3.472890
    20  H    2.165223   2.160999   3.371130   2.920929   2.802030
    21  H    2.185091   4.226399   4.723476   5.096985   3.502255
    22  H    2.183443   4.241689   4.239050   4.698206   2.818867
    23  H    2.183525   4.739432   4.227697   5.104252   2.794451
    24  H    3.839788   1.961353   3.370782   2.566521   4.229775
    25  H    4.642736   3.521937   2.679689   2.129960   3.662516
    26  H    5.282897   3.005295   4.393298   2.884247   5.183103
    27  H    5.745934   3.560773   4.088843   2.770448   5.295812
    28  H    6.159794   4.255832   4.749154   3.513573   5.633806
    29  H    4.030919   3.005170   3.903854   2.986145   3.907111
    30  H    3.644352   3.515034   3.127159   2.915351   2.929189
    31  H    5.169406   4.242701   4.290030   3.567661   4.529997
                    6          7          8          9         10
     6  C    0.000000
     7  C    2.536871   0.000000
     8  O    2.360895   4.341958   0.000000
     9  C    3.466329   5.319546   3.827014   0.000000
    10  C    4.363500   6.557965   4.254967   1.540349   0.000000
    11  C    3.415698   4.946227   4.622002   1.538206   2.512836
    12  H    2.140506   2.148693   2.636675   4.677211   5.772572
    13  H    2.153802   4.686908   2.075400   2.720024   2.830541
    14  H    3.369686   4.210980   2.847269   3.491550   4.591690
    15  H    3.940560   4.713637   4.083560   2.720563   4.053958
    16  H    3.459767   5.397786   2.493032   2.107312   2.567578
    17  H    3.472069   2.781970   4.374953   4.401338   5.861055
    18  H    2.806521   2.751270   4.346364   3.294191   4.792579
    19  H    1.097168   2.780605   2.508910   4.406297   5.086971
    20  H    1.096998   2.754706   3.313156   3.287211   4.204208
    21  H    2.787358   1.096761   4.466009   5.997750   7.088228
    22  H    2.813194   1.098222   4.960719   5.223064   6.480187
    23  H    3.496894   1.096917   5.022053   5.997150   7.330573
    24  H    3.213882   5.262430   0.969833   3.858919   4.023665
    25  H    4.306990   5.846964   4.557415   1.100580   2.133432
    26  H    4.088484   6.466988   4.001642   2.198337   1.096993
    27  H    4.901136   7.120790   4.252897   2.194819   1.096822
    28  H    5.232499   7.312349   5.337754   2.183955   1.096413
    29  H    3.025860   4.759011   4.436317   2.195550   2.785212
    30  H    3.337019   4.299719   4.862661   2.204131   3.487992
    31  H    4.491583   5.933476   5.632232   2.169797   2.724310
                   11         12         13         14         15
    11  C    0.000000
    12  H    4.954900   0.000000
    13  H    3.190189   3.799669   0.000000
    14  H    4.406556   2.584610   3.881178   0.000000
    15  H    3.508193   3.776782   4.312422   1.757912   0.000000
    16  H    3.500822   3.948538   2.578952   2.289016   2.551760
    17  H    4.528469   2.474407   4.986700   2.425436   2.505792
    18  H    2.967342   3.054281   4.174107   3.061584   2.501473
    19  H    4.330864   2.466544   2.475872   4.177827   4.973468
    20  H    2.769332   3.051080   2.424313   4.054422   4.187027
    21  H    5.628733   2.499552   4.876417   4.910927   5.625606
    22  H    4.544769   3.073547   4.863265   4.776006   4.911507
    23  H    5.693328   2.501922   5.610826   4.400487   4.906265
    24  H    4.904085   3.478322   2.337914   3.046609   4.227730
    25  H    2.133949   5.177051   3.755153   3.536135   2.319976
    26  H    2.808358   5.737045   2.257109   4.996370   4.745625
    27  H    3.481603   6.030698   3.247371   4.530851   4.154121
    28  H    2.725447   6.720668   3.794514   5.497994   4.695104
    29  H    1.096306   4.903590   2.729913   4.846557   4.284196
    30  H    1.093547   4.595532   3.766020   4.211449   3.204063
    31  H    1.096828   6.039706   4.077583   5.329864   4.214139
                   16         17         18         19         20
    16  H    0.000000
    17  H    4.254721   0.000000
    18  H    3.949117   1.755102   0.000000
    19  H    4.223708   4.313849   3.811678   0.000000
    20  H    3.920081   3.806984   2.646769   1.762454   0.000000
    21  H    5.951841   3.783828   3.770306   2.581027   3.090731
    22  H    5.722312   3.163448   2.576663   3.164013   2.580983
    23  H    5.961370   2.583190   3.084950   3.782224   3.772833
    24  H    2.185482   4.969125   4.956291   3.414372   4.064531
    25  H    2.439922   4.416752   3.466549   5.315937   4.160016
    26  H    2.971573   6.226162   5.112256   4.614937   3.915408
    27  H    2.317898   6.182777   5.377853   5.588570   4.952450
    28  H    3.574172   6.575346   5.361681   5.973616   4.899729
    29  H    3.860851   4.951572   3.379296   3.746110   2.220862
    30  H    3.903704   3.785574   2.105538   4.325834   2.659830
    31  H    4.273348   5.422959   3.832281   5.365967   3.772693
                   21         22         23         24         25
    21  H    0.000000
    22  H    1.771546   0.000000
    23  H    1.771968   1.771138   0.000000
    24  H    5.430762   5.853853   5.903168   0.000000
    25  H    6.646611   5.746208   6.371381   4.509247   0.000000
    26  H    6.841350   6.396107   7.347887   3.824371   3.068497
    27  H    7.643446   7.180817   7.829933   3.787908   2.487060
    28  H    7.884269   7.102597   8.079617   5.118390   2.468388
    29  H    5.257515   4.327634   5.653290   4.807248   3.067073
    30  H    5.108886   3.807946   4.930654   5.282423   2.513489
    31  H    6.629109   5.426615   6.649322   5.826128   2.441711
                   26         27         28         29         30
    26  H    0.000000
    27  H    1.771905   0.000000
    28  H    1.764940   1.770195   0.000000
    29  H    2.634587   3.815388   3.080813   0.000000
    30  H    3.829734   4.355531   3.737104   1.771384   0.000000
    31  H    3.126957   3.721738   2.476533   1.763232   1.765269
                   31
    31  H    0.000000
 Stoichiometry    C10H20O
 Framework group  C1[X(C10H20O)]
 Deg. of freedom    87
 Full point group                 C1      NOp   1
 Largest Abelian subgroup         C1      NOp   1
 Largest concise Abelian subgroup C1      NOp   1
                         Standard orientation:                         
 ---------------------------------------------------------------------
 Center     Atomic      Atomic             Coordinates (Angstroms)
 Number     Number       Type             X           Y           Z
 ---------------------------------------------------------------------
      1          6           0       -2.047762   -0.048158    0.001717
      2          6           0        0.173263    1.135606   -0.496527
      3          6           0       -0.125570   -0.185257    1.664414
      4          6           0        0.898248    0.376036    0.645406
      5          6           0       -1.331277   -0.914209    1.050959
      6          6           0       -1.044724    0.402685   -1.073386
      7          6           0       -3.244287   -0.776815   -0.619056
      8          8           0       -0.335633    2.389489   -0.013375
      9          6           0        2.009335   -0.627237    0.202318
     10          6           0        3.246467    0.115914   -0.336110
     11          6           0        1.605717   -1.732895   -0.787981
     12          1           0       -2.416195    0.855498    0.506422
     13          1           0        0.884305    1.329552   -1.315515
     14          1           0       -0.512327    0.662943    2.243782
     15          1           0        0.391942   -0.838418    2.379680
     16          1           0        1.461190    1.150790    1.191723
     17          1           0       -2.032879   -1.185558    1.851729
     18          1           0       -1.021113   -1.860381    0.586294
     19          1           0       -1.533504    1.078830   -1.785917
     20          1           0       -0.705794   -0.470697   -1.644118
     21          1           0       -3.764598   -0.142241   -1.346707
     22          1           0       -2.925081   -1.688655   -1.141308
     23          1           0       -3.971089   -1.071506    0.147849
     24          1           0        0.408761    2.880164    0.368321
     25          1           0        2.324005   -1.130623    1.129066
     26          1           0        3.031965    0.636249   -1.277722
     27          1           0        3.613198    0.860345    0.381072
     28          1           0        4.065079   -0.586161   -0.533812
     29          1           0        1.341048   -1.323259   -1.769834
     30          1           0        0.761001   -2.329347   -0.432249
     31          1           0        2.448687   -2.417458   -0.942277
 ---------------------------------------------------------------------
 Rotational constants (GHZ):      1.5527698      0.7713947      0.6768290
 Standard basis: 6-31+G(d,p) (6D, 7F)
 There are   309 symmetry adapted basis functions of A   symmetry.
 Integral buffers will be    131072 words long.
 Raffenetti 2 integral format.
 Two-electron integral symmetry is turned on.
   309 basis functions,   492 primitive gaussians,   309 cartesian basis functions
    44 alpha electrons       44 beta electrons
       nuclear repulsion energy       697.3467007455 Hartrees.
 NAtoms=   31 NActive=   31 NUniq=   31 SFac= 1.00D+00 NAtFMM=   60 NAOKFM=F Big=F
 ------------------------------------------------------------------------------
 Polarizable Continuum Model (PCM)
 =================================
 Model                : PCM.
 Atomic radii         : UFF (Universal Force Field).
 Polarization charges : Total charges.
 Charge compensation  : None.
 Solution method      : Matrix inversion.
 Cavity type          : Scaled VdW (van der Waals Surface) (Alpha=1.100).
 Cavity algorithm     : GePol (No added spheres)
                        Default sphere list used, NSphG=   31.
                        Lebedev-Laikov grids with approx.  5.0 points / Ang**2.
                        Smoothing algorithm: Karplus/York (Gamma=1.0000).
                        Polarization charges: spherical gaussians, with
                                              point-specific exponents (IZeta= 3).
                        Self-potential: point-specific (ISelfS= 7).
                        Self-field    : sphere-specific E.n sum rule (ISelfD= 2).
 Solvent              : Benzene, Eps=   2.270600 Eps(inf)=   2.253301
 ------------------------------------------------------------------------------
 One-electron integrals computed using PRISM.
 NBasis=   309 RedAO= T  NBF=   309
 NBsUse=   309 1.00D-06 NBFU=   309
 Harris functional with IExCor=  908 diagonalized for initial guess.
 ExpMin= 4.38D-02 ExpMax= 5.48D+03 ExpMxC= 8.25D+02 IAcc=2 IRadAn=         4 AccDes= 0.00D+00
 HarFok:  IExCor=  908 AccDes= 0.00D+00 IRadAn=         4 IDoV= 1
 ScaDFX=  1.000000  1.000000  1.000000  1.000000
 FoFCou: FMM=F IPFlag=           0 FMFlag=      100000 FMFlg1=           0
         NFxFlg=           0 DoJE=T BraDBF=F KetDBF=T FulRan=T
         Omega=  0.000000  0.000000  1.000000  0.000000  0.000000 ICntrl=     500 IOpCl=  0
         NMat0=    1 NMatS0=    1 NMatT0=    0 NMatD0=    1 NMtDS0=    0 NMtDT0=    0
         I1Cent=           4 NGrid=           0.
 Petite list used in FoFCou.
 Initial guess orbital symmetries:
       Occupied  (A) (A) (A) (A) (A) (A) (A) (A) (A) (A) (A) (A)
                 (A) (A) (A) (A) (A) (A) (A) (A) (A) (A) (A) (A)
                 (A) (A) (A) (A) (A) (A) (A) (A) (A) (A) (A) (A)
                 (A) (A) (A) (A) (A) (A) (A) (A)
       Virtual   (A) (A) (A) (A) (A) (A) (A) (A) (A) (A) (A) (A)
                 (A) (A) (A) (A) (A) (A) (A) (A) (A) (A) (A) (A)
                 (A) (A) (A) (A) (A) (A) (A) (A) (A) (A) (A) (A)
                 (A) (A) (A) (A) (A) (A) (A) (A) (A) (A) (A) (A)
                 (A) (A) (A) (A) (A) (A) (A) (A) (A) (A) (A) (A)
                 (A) (A) (A) (A) (A) (A) (A) (A) (A) (A) (A) (A)
                 (A) (A) (A) (A) (A) (A) (A) (A) (A) (A) (A) (A)
                 (A) (A) (A) (A) (A) (A) (A) (A) (A) (A) (A) (A)
                 (A) (A) (A) (A) (A) (A) (A) (A) (A) (A) (A) (A)
                 (A) (A) (A) (A) (A) (A) (A) (A) (A) (A) (A) (A)
                 (A) (A) (A) (A) (A) (A) (A) (A) (A) (A) (A) (A)
                 (A) (A) (A) (A) (A) (A) (A) (A) (A) (A) (A) (A)
                 (A) (A) (A) (A) (A) (A) (A) (A) (A) (A) (A) (A)
                 (A) (A) (A) (A) (A) (A) (A) (A) (A) (A) (A) (A)
                 (A) (A) (A) (A) (A) (A) (A) (A) (A) (A) (A) (A)
                 (A) (A) (A) (A) (A) (A) (A) (A) (A) (A) (A) (A)
                 (A) (A) (A) (A) (A) (A) (A) (A) (A) (A) (A) (A)
                 (A) (A) (A) (A) (A) (A) (A) (A) (A) (A) (A) (A)
                 (A) (A) (A) (A) (A) (A) (A) (A) (A) (A) (A) (A)
                 (A) (A) (A) (A) (A) (A) (A) (A) (A) (A) (A) (A)
                 (A) (A) (A) (A) (A) (A) (A) (A) (A) (A) (A) (A)
                 (A) (A) (A) (A) (A) (A) (A) (A) (A) (A) (A) (A)
                 (A)
 The electronic state of the initial guess is 1-A.
 Requested convergence on RMS density matrix=1.00D-08 within 128 cycles.
 Requested convergence on MAX density matrix=1.00D-06.
 Requested convergence on             energy=1.00D-06.
 No special actions if energy rises.
 Error on total polarization charges =  0.00929
 SCF Done:  E(RmPW1PW91) =  -468.276928350     A.U. after   12 cycles
             Convg  =    0.6074D-08             -V/T =  2.0099
 Range of M.O.s used for correlation:     1   309
 NBasis=   309 NAE=    44 NBE=    44 NFC=     0 NFV=     0
 NROrb=    309 NOA=    44 NOB=    44 NVA=   265 NVB=   265

 **** Warning!!: The largest alpha MO coefficient is  0.77901806D+02

 NEqPCM:  Using equilibrium solvation (IEInf=0, Eps=   2.2706, EpsInf=   2.2533)
          Differentiating once with respect to magnetic field using GIAOs.
          Electric field/nuclear overlap derivatives assumed to be zero.
 FoFCou: FMM=F IPFlag=           0 FMFlag=    10101102 FMFlg1=           0
         NFxFlg=    40000000 DoJE=F BraDBF=F KetDBF=T FulRan=T
         Omega=  0.000000  0.000000  1.000000  0.000000  0.000000 ICntrl=    6100 IOpCl=  0
         NMat0=    1 NMatS0=    1 NMatT0=    0 NMatD0=    1 NMtDS0=    0 NMtDT0=    0
         I1Cent=           7 NGrid=        1928.
 Symmetry not used in FoFCou.
          There are     3 degrees of freedom in the 1st order CPHF.  IDoFFX=0.
      3 vectors produced by pass  0 Test12= 3.89D-13 3.33D-08 XBig12= 3.53D+01 1.49D+00.
 AX will form     3 AO Fock derivatives at one time.
      3 vectors produced by pass  1 Test12= 3.89D-13 3.33D-08 XBig12= 7.96D-02 6.10D-02.
      3 vectors produced by pass  2 Test12= 3.89D-13 3.33D-08 XBig12= 2.34D-04 4.50D-03.
      3 vectors produced by pass  3 Test12= 3.89D-13 3.33D-08 XBig12= 7.96D-07 1.80D-04.
      3 vectors produced by pass  4 Test12= 3.89D-13 3.33D-08 XBig12= 2.13D-09 8.44D-06.
      3 vectors produced by pass  5 Test12= 3.89D-13 3.33D-08 XBig12= 6.24D-12 4.93D-07.
 Inverted reduced A of dimension    18 with in-core refinement.
 Calculating GIAO nuclear magnetic shielding tensors.
 SCF GIAO Magnetic shielding tensor (ppm):
      1  C    Isotropic =   167.8807   Anisotropy =    12.5172
   XX=   165.5251   YX=    -0.9755   ZX=     3.8283
   XY=     2.0280   YY=   167.6131   ZY=    -0.9672
   XZ=    11.8198   YZ=     0.3473   ZZ=   170.5040
   Eigenvalues:   159.7570   167.6597   176.2255
      2  C    Isotropic =   127.4416   Anisotropy =    52.0444
   XX=   113.3149   YX=   -11.8756   ZX=    -0.5450
   XY=   -18.3675   YY=   150.6260   ZY=    17.5440
   XZ=    -3.4707   YZ=    15.7494   ZZ=   118.3839
   Eigenvalues:   106.0322   114.1548   162.1378
      3  C    Isotropic =   164.2303   Anisotropy =    18.2643
   XX=   175.4916   YX=     0.3080   ZX=     0.5424
   XY=     5.1725   YY=   154.6609   ZY=    -7.6489
   XZ=    -4.0526   YZ=    -5.6840   ZZ=   162.5385
   Eigenvalues:   150.7623   165.5221   176.4065
      4  C    Isotropic =   145.9142   Anisotropy =    25.5470
   XX=   142.2653   YX=    -7.5099   ZX=    -0.7954
   XY=   -11.0503   YY=   156.5715   ZY=    13.9677
   XZ=    11.4869   YZ=     4.9814   ZZ=   138.9057
   Eigenvalues:   128.7428   146.0542   162.9455
      5  C    Isotropic =   162.3341   Anisotropy =    18.9476
   XX=   164.2430   YX=    -0.2410   ZX=     8.6600
   XY=    -7.2555   YY=   157.7679   ZY=    -2.9375
   XZ=     8.9746   YZ=    -4.0555   ZZ=   164.9914
   Eigenvalues:   155.6621   156.3743   174.9658
      6  C    Isotropic =   156.5481   Anisotropy =    20.1144
   XX=   164.7780   YX=    12.3617   ZX=     0.2506
   XY=     3.9562   YY=   156.4339   ZY=     3.5621
   XZ=    -8.3227   YZ=     2.1249   ZZ=   148.4323
   Eigenvalues:   145.0593   154.6272   169.9577
      7  C    Isotropic =   172.4837   Anisotropy =    38.6664
   XX=   186.2715   YX=    11.6727   ZX=    10.5635
   XY=    16.8644   YY=   165.0468   ZY=     3.9036
   XZ=    13.9992   YZ=     2.4942   ZZ=   166.1327
   Eigenvalues:   156.5676   162.6222   198.2613
      8  O    Isotropic =   269.2970   Anisotropy =   111.7180
   XX=   259.1935   YX=    29.7874   ZX=    62.7287
   XY=     5.2972   YY=   304.5259   ZY=    27.5774
   XZ=    61.2438   YZ=    34.5591   ZZ=   244.1716
   Eigenvalues:   187.9875   276.1279   343.7757
      9  C    Isotropic =   158.1344   Anisotropy =    21.9286
   XX=   164.7230   YX=    -9.6131   ZX=    -5.0197
   XY=   -11.6378   YY=   156.3222   ZY=    -2.1014
   XZ=    -7.7120   YZ=    -3.0756   ZZ=   153.3579
   Eigenvalues:   144.9435   156.7062   172.7534
     10  C    Isotropic =   171.4147   Anisotropy =    39.5969
   XX=   184.2120   YX=    17.3456   ZX=    -7.6596
   XY=    17.6522   YY=   172.5234   ZY=     6.0127
   XZ=   -15.6430   YZ=     5.6233   ZZ=   157.5088
   Eigenvalues:   146.7109   169.7206   197.8127
     11  C    Isotropic =   173.8995   Anisotropy =    21.4780
   XX=   173.4537   YX=     3.2965   ZX=    -0.5183
   XY=     8.5561   YY=   177.8474   ZY=     9.3853
   XZ=     3.4800   YZ=    13.1944   ZZ=   170.3974
   Eigenvalues:   161.7370   171.7434   188.2182
     12  H    Isotropic =    29.5284   Anisotropy =     6.4700
   XX=    30.9974   YX=    -1.6501   ZX=    -1.4658
   XY=    -1.2532   YY=    31.1888   ZY=     2.9098
   XZ=    -1.4054   YZ=     2.7933   ZZ=    26.3992
   Eigenvalues:    24.9845    29.7590    33.8418
     13  H    Isotropic =    27.4960   Anisotropy =     5.4374
   XX=    28.7220   YX=    -0.9266   ZX=    -2.8267
   XY=    -1.7290   YY=    26.8336   ZY=    -0.1201
   XZ=    -3.4190   YZ=    -2.0131   ZZ=    26.9325
   Eigenvalues:    23.7018    27.6653    31.1210
     14  H    Isotropic =    29.3202   Anisotropy =     8.2525
   XX=    27.4451   YX=     0.2385   ZX=    -2.2093
   XY=     0.1346   YY=    28.3037   ZY=     3.1624
   XZ=    -2.4987   YZ=     3.9158   ZZ=    32.2119
   Eigenvalues:    25.2072    27.9316    34.8219
     15  H    Isotropic =    30.2078   Anisotropy =     8.5021
   XX=    30.2195   YX=    -0.5671   ZX=     2.4975
   XY=    -0.4854   YY=    27.1521   ZY=    -3.0980
   XZ=     2.4613   YZ=    -3.7444   ZZ=    33.2517
   Eigenvalues:    25.5476    29.1999    35.8758
     16  H    Isotropic =    30.4274   Anisotropy =     5.2299
   XX=    32.0363   YX=     0.9603   ZX=    -0.0179
   XY=     2.1411   YY=    30.8244   ZY=     2.6719
   XZ=     0.2679   YZ=     3.4210   ZZ=    28.4214
   Eigenvalues:    26.2409    31.1272    33.9140
     17  H    Isotropic =    30.1250   Anisotropy =     9.3604
   XX=    31.2801   YX=     2.7015   ZX=    -2.6849
   XY=     3.1116   YY=    26.6921   ZY=    -2.8846
   XZ=    -2.6327   YZ=    -3.1554   ZZ=    32.4027
   Eigenvalues:    24.8634    29.1463    36.3653
     18  H    Isotropic =    30.2694   Anisotropy =     5.2461
   XX=    30.8192   YX=    -0.1173   ZX=     0.1787
   XY=    -0.7819   YY=    33.6074   ZY=     1.0423
   XZ=    -0.1077   YZ=     0.6063   ZZ=    26.3816
   Eigenvalues:    26.2872    30.7542    33.7668
     19  H    Isotropic =    29.7546   Anisotropy =     7.9710
   XX=    28.9428   YX=    -0.2525   ZX=     2.4495
   XY=     0.6208   YY=    28.8314   ZY=    -4.0539
   XZ=     2.6974   YZ=    -3.9915   ZZ=    31.4896
   Eigenvalues:    25.1175    29.0777    35.0686
     20  H    Isotropic =    30.3870   Anisotropy =     5.0444
   XX=    31.4615   YX=    -1.2915   ZX=    -0.4202
   XY=    -1.2622   YY=    28.9339   ZY=     3.0453
   XZ=    -0.6847   YZ=     3.1791   ZZ=    30.7655
   Eigenvalues:    26.5046    30.9064    33.7499
     21  H    Isotropic =    30.6253   Anisotropy =    10.7501
   XX=    33.5709   YX=    -1.7622   ZX=     5.2439
   XY=    -0.8738   YY=    28.0214   ZY=    -1.6243
   XZ=     4.8014   YZ=    -2.8125   ZZ=    30.2835
   Eigenvalues:    25.9692    28.1146    37.7920
     22  H    Isotropic =    31.0449   Anisotropy =     7.9688
   XX=    30.1149   YX=     1.7393   ZX=     1.3936
   XY=     1.0506   YY=    33.2879   ZY=     3.9299
   XZ=     0.9552   YZ=     3.9506   ZZ=    29.7318
   Eigenvalues:    27.1665    29.6108    36.3574
     23  H    Isotropic =    30.6169   Anisotropy =    10.7461
   XX=    35.6084   YX=     3.2707   ZX=    -3.2923
   XY=     3.4657   YY=    27.2834   ZY=    -1.5892
   XZ=    -2.1465   YZ=    -0.6717   ZZ=    28.9588
   Eigenvalues:    26.0793    27.9905    37.7809
     24  H    Isotropic =    31.4021   Anisotropy =    17.4266
   XX=    32.7346   YX=     4.8642   ZX=     3.8094
   XY=     5.9014   YY=    36.0406   ZY=     5.4409
   XZ=     5.8242   YZ=     5.4947   ZZ=    25.4310
   Eigenvalues:    22.3814    28.8050    43.0198
     25  H    Isotropic =    29.8012   Anisotropy =     6.8759
   XX=    29.8736   YX=    -1.9276   ZX=     1.9123
   XY=    -1.3020   YY=    27.8324   ZY=    -3.2294
   XZ=     1.5218   YZ=    -2.5136   ZZ=    31.6977
   Eigenvalues:    26.1747    28.8438    34.3852
     26  H    Isotropic =    30.4493   Anisotropy =     6.7205
   XX=    30.8330   YX=     1.0075   ZX=    -2.2557
   XY=     0.3968   YY=    29.0296   ZY=    -3.7628
   XZ=    -1.3448   YZ=    -3.4519   ZZ=    31.4853
   Eigenvalues:    26.3897    30.0285    34.9296
     27  H    Isotropic =    30.7264   Anisotropy =     9.8540
   XX=    32.7971   YX=     4.5342   ZX=     2.3947
   XY=     3.5710   YY=    30.7548   ZY=     3.6907
   XZ=     1.4591   YZ=     2.3598   ZZ=    28.6273
   Eigenvalues:    26.3153    28.5681    37.2957
     28  H    Isotropic =    30.6050   Anisotropy =    10.4348
   XX=    36.3571   YX=    -2.8761   ZX=    -1.8887
   XY=    -1.9683   YY=    28.9238   ZY=     0.4461
   XZ=    -2.3523   YZ=     1.5073   ZZ=    26.5341
   Eigenvalues:    26.0017    28.2518    37.5615
     29  H    Isotropic =    30.7940   Anisotropy =     5.7709
   XX=    29.6120   YX=    -1.6360   ZX=     1.4425
   XY=    -1.4477   YY=    28.6629   ZY=     1.8002
   XZ=     1.3978   YZ=     0.7824   ZZ=    34.1072
   Eigenvalues:    27.0214    30.7194    34.6413
     30  H    Isotropic =    30.2311   Anisotropy =     7.3805
   XX=    32.2850   YX=     2.1663   ZX=    -2.6599
   XY=     3.2034   YY=    32.5575   ZY=     0.7079
   XZ=    -1.6060   YZ=     1.7251   ZZ=    25.8507
   Eigenvalues:    24.6904    30.8514    35.1514
     31  H    Isotropic =    30.6383   Anisotropy =    10.5630
   XX=    31.3426   YX=    -3.9741   ZX=    -0.9920
   XY=    -4.2815   YY=    33.6295   ZY=     2.7941
   XZ=    -1.6902   YZ=     3.0066   ZZ=    26.9427
   Eigenvalues:    25.8496    28.3849    37.6803
 End of Minotr Frequency-dependent properties file   721 does not exist.
 End of Minotr Frequency-dependent properties file   722 does not exist.

 **********************************************************************

            Population analysis using the SCF density.

 **********************************************************************

 Orbital symmetries:
       Occupied  (A) (A) (A) (A) (A) (A) (A) (A) (A) (A) (A) (A)
                 (A) (A) (A) (A) (A) (A) (A) (A) (A) (A) (A) (A)
                 (A) (A) (A) (A) (A) (A) (A) (A) (A) (A) (A) (A)
                 (A) (A) (A) (A) (A) (A) (A) (A)
       Virtual   (A) (A) (A) (A) (A) (A) (A) (A) (A) (A) (A) (A)
                 (A) (A) (A) (A) (A) (A) (A) (A) (A) (A) (A) (A)
                 (A) (A) (A) (A) (A) (A) (A) (A) (A) (A) (A) (A)
                 (A) (A) (A) (A) (A) (A) (A) (A) (A) (A) (A) (A)
                 (A) (A) (A) (A) (A) (A) (A) (A) (A) (A) (A) (A)
                 (A) (A) (A) (A) (A) (A) (A) (A) (A) (A) (A) (A)
                 (A) (A) (A) (A) (A) (A) (A) (A) (A) (A) (A) (A)
                 (A) (A) (A) (A) (A) (A) (A) (A) (A) (A) (A) (A)
                 (A) (A) (A) (A) (A) (A) (A) (A) (A) (A) (A) (A)
                 (A) (A) (A) (A) (A) (A) (A) (A) (A) (A) (A) (A)
                 (A) (A) (A) (A) (A) (A) (A) (A) (A) (A) (A) (A)
                 (A) (A) (A) (A) (A) (A) (A) (A) (A) (A) (A) (A)
                 (A) (A) (A) (A) (A) (A) (A) (A) (A) (A) (A) (A)
                 (A) (A) (A) (A) (A) (A) (A) (A) (A) (A) (A) (A)
                 (A) (A) (A) (A) (A) (A) (A) (A) (A) (A) (A) (A)
                 (A) (A) (A) (A) (A) (A) (A) (A) (A) (A) (A) (A)
                 (A) (A) (A) (A) (A) (A) (A) (A) (A) (A) (A) (A)
                 (A) (A) (A) (A) (A) (A) (A) (A) (A) (A) (A) (A)
                 (A) (A) (A) (A) (A) (A) (A) (A) (A) (A) (A) (A)
                 (A) (A) (A) (A) (A) (A) (A) (A) (A) (A) (A) (A)
                 (A) (A) (A) (A) (A) (A) (A) (A) (A) (A) (A) (A)
                 (A) (A) (A) (A) (A) (A) (A) (A) (A) (A) (A) (A)
                 (A)
 The electronic state is 1-A.
 Alpha  occ. eigenvalues --  -19.24365 -10.29522 -10.25615 -10.25112 -10.24289
 Alpha  occ. eigenvalues --  -10.23847 -10.23599 -10.23584 -10.23578 -10.23504
 Alpha  occ. eigenvalues --  -10.23001  -1.04862  -0.85655  -0.82084  -0.76677
 Alpha  occ. eigenvalues --   -0.75343  -0.70702  -0.69448  -0.62688  -0.62057
 Alpha  occ. eigenvalues --   -0.58259  -0.56011  -0.50760  -0.48944  -0.46796
 Alpha  occ. eigenvalues --   -0.46413  -0.45210  -0.43875  -0.42801  -0.41051
 Alpha  occ. eigenvalues --   -0.40344  -0.39429  -0.39014  -0.38114  -0.37362
 Alpha  occ. eigenvalues --   -0.37221  -0.36137  -0.34267  -0.33456  -0.33058
 Alpha  occ. eigenvalues --   -0.31463  -0.31136  -0.30230  -0.27514
 Alpha virt. eigenvalues --    0.00542   0.01890   0.02053   0.02129   0.03698
 Alpha virt. eigenvalues --    0.04053   0.04400   0.04942   0.05655   0.06691
 Alpha virt. eigenvalues --    0.07301   0.07868   0.08409   0.08712   0.09042
 Alpha virt. eigenvalues --    0.09123   0.09776   0.10765   0.11481   0.11511
 Alpha virt. eigenvalues --    0.12426   0.13156   0.13584   0.13877   0.14786
 Alpha virt. eigenvalues --    0.15038   0.15619   0.15982   0.16557   0.16912
 Alpha virt. eigenvalues --    0.18094   0.18356   0.18612   0.19340   0.19582
 Alpha virt. eigenvalues --    0.20134   0.20696   0.21259   0.21499   0.21838
 Alpha virt. eigenvalues --    0.22892   0.23802   0.23909   0.24215   0.24859
 Alpha virt. eigenvalues --    0.25425   0.25877   0.26326   0.27196   0.27533
 Alpha virt. eigenvalues --    0.27730   0.28285   0.28947   0.29631   0.29999
 Alpha virt. eigenvalues --    0.30831   0.31316   0.31857   0.32402   0.33258
 Alpha virt. eigenvalues --    0.34256   0.34646   0.36073   0.36955   0.37503
 Alpha virt. eigenvalues --    0.38580   0.39433   0.39643   0.40209   0.41733
 Alpha virt. eigenvalues --    0.43376   0.44592   0.45909   0.49640   0.51242
 Alpha virt. eigenvalues --    0.63743   0.64398   0.66049   0.66677   0.67118
 Alpha virt. eigenvalues --    0.68000   0.69800   0.70595   0.71117   0.72765
 Alpha virt. eigenvalues --    0.74212   0.75012   0.75386   0.75724   0.77414
 Alpha virt. eigenvalues --    0.78112   0.80086   0.81322   0.82774   0.83995
 Alpha virt. eigenvalues --    0.85578   0.87697   0.89001   0.90421   0.91582
 Alpha virt. eigenvalues --    0.93886   0.95901   0.98008   0.99970   1.00197
 Alpha virt. eigenvalues --    1.01766   1.02222   1.02566   1.03267   1.04826
 Alpha virt. eigenvalues --    1.06311   1.07520   1.08752   1.09945   1.11535
 Alpha virt. eigenvalues --    1.11867   1.14138   1.15609   1.15693   1.17117
 Alpha virt. eigenvalues --    1.18189   1.18236   1.19939   1.20882   1.23502
 Alpha virt. eigenvalues --    1.25116   1.27457   1.28185   1.30397   1.31142
 Alpha virt. eigenvalues --    1.37476   1.38352   1.41446   1.42444   1.44571
 Alpha virt. eigenvalues --    1.47359   1.49997   1.52761   1.55002   1.56056
 Alpha virt. eigenvalues --    1.57876   1.59501   1.62378   1.65591   1.66294
 Alpha virt. eigenvalues --    1.71274   1.72598   1.74807   1.77192   1.80375
 Alpha virt. eigenvalues --    1.82486   1.83214   1.85573   1.86776   1.88273
 Alpha virt. eigenvalues --    1.89538   1.91134   1.92610   1.94058   1.96010
 Alpha virt. eigenvalues --    1.97256   1.98675   1.99014   2.02374   2.02719
 Alpha virt. eigenvalues --    2.05438   2.06167   2.06484   2.07187   2.08088
 Alpha virt. eigenvalues --    2.09230   2.11749   2.13385   2.14561   2.14818
 Alpha virt. eigenvalues --    2.16279   2.16920   2.17244   2.19112   2.20065
 Alpha virt. eigenvalues --    2.22077   2.23178   2.24404   2.25666   2.27477
 Alpha virt. eigenvalues --    2.34516   2.34815   2.35901   2.36850   2.37621
 Alpha virt. eigenvalues --    2.38812   2.39097   2.41200   2.43377   2.44846
 Alpha virt. eigenvalues --    2.48777   2.50679   2.53316   2.54739   2.57449
 Alpha virt. eigenvalues --    2.58863   2.60667   2.62313   2.63852   2.65836
 Alpha virt. eigenvalues --    2.66476   2.68081   2.68188   2.70823   2.72069
 Alpha virt. eigenvalues --    2.73643   2.75823   2.76267   2.77438   2.79579
 Alpha virt. eigenvalues --    2.80136   2.81716   2.82583   2.84178   2.84749
 Alpha virt. eigenvalues --    2.86145   2.88843   2.89559   2.91574   2.91822
 Alpha virt. eigenvalues --    2.92920   2.93226   2.95822   2.97469   2.98996
 Alpha virt. eigenvalues --    2.99664   3.04362   3.06241   3.13627   3.28978
 Alpha virt. eigenvalues --    3.29642   3.30943   3.36310   3.38651   3.39860
 Alpha virt. eigenvalues --    3.41220   3.43208   3.47828   3.49560   3.50697
 Alpha virt. eigenvalues --    3.51493   3.53428   3.53590   3.55205   3.57418
 Alpha virt. eigenvalues --    3.57957   3.58927   3.59703   3.64242   4.35332
 Alpha virt. eigenvalues --    4.42485   4.43639   4.56138   4.59134   4.61774
 Alpha virt. eigenvalues --    4.63386   4.75798   4.83605   4.91267   4.95496
          Condensed to atoms (all electrons):
              1          2          3          4          5          6
     1  C    6.888338   0.268419   0.369612  -0.208736  -0.330908  -0.343216
     2  C    0.268419   7.865595   0.043474  -1.009582  -0.246920  -0.380160
     3  C    0.369612   0.043474   6.682520  -0.574843  -0.021371  -0.196327
     4  C   -0.208736  -1.009582  -0.574843   8.351936  -0.351661  -0.399028
     5  C   -0.330908  -0.246920  -0.021371  -0.351661   6.143524  -0.055774
     6  C   -0.343216  -0.380160  -0.196327  -0.399028  -0.055774   6.736333
     7  C   -0.475373  -0.220394  -0.077892   0.077912   0.162199   0.107071
     8  O    0.029651   0.071317  -0.055163   0.211202  -0.014928  -0.212404
     9  C   -0.217055  -0.829001  -0.202989  -0.368478   0.262321   0.405237
    10  C    0.007548   0.127476  -0.115738   0.157135  -0.032698  -0.019252
    11  C    0.035084   0.047630   0.113298  -0.100156  -0.034562  -0.094029
    12  H    0.295285  -0.039595  -0.049125   0.025806   0.011096  -0.001445
    13  H    0.001892   0.151342  -0.017500   0.093308  -0.003036   0.007238
    14  H   -0.010570  -0.066619   0.370121   0.018789  -0.036264   0.018258
    15  H    0.031734   0.039232   0.440108  -0.118235  -0.039170  -0.023758
    16  H   -0.019070   0.086611  -0.036511   0.210340   0.051305   0.020764
    17  H   -0.018383   0.001646  -0.011217   0.041662   0.307433   0.033795
    18  H   -0.103013  -0.040882  -0.120400   0.067742   0.458164   0.025608
    19  H   -0.028426  -0.012742   0.003711   0.045769   0.031383   0.301666
    20  H   -0.089154  -0.060268  -0.025415   0.063504   0.007250   0.408946
    21  H   -0.122817  -0.002215  -0.005750   0.003707   0.022247   0.007119
    22  H   -0.108224  -0.005157  -0.005423   0.003744   0.007876   0.000032
    23  H   -0.138474  -0.013666  -0.002286   0.003878   0.007350   0.036452
    24  H   -0.019611   0.151795  -0.021223  -0.155940   0.005114   0.052794
    25  H    0.004557   0.021671   0.002943  -0.029460   0.011563  -0.021310
    26  H    0.001528   0.000515   0.000695   0.014526   0.001583  -0.012527
    27  H   -0.000121   0.025504  -0.005863  -0.005152   0.001220   0.001755
    28  H   -0.000405   0.008018  -0.009446   0.031735   0.000175  -0.000760
    29  H    0.008292   0.039008   0.000359  -0.014325   0.001992  -0.039123
    30  H   -0.004036  -0.055341   0.034891  -0.007259  -0.026750   0.028735
    31  H   -0.000652   0.000993   0.000971   0.030409  -0.001192   0.001999
              7          8          9         10         11         12
     1  C   -0.475373   0.029651  -0.217055   0.007548   0.035084   0.295285
     2  C   -0.220394   0.071317  -0.829001   0.127476   0.047630  -0.039595
     3  C   -0.077892  -0.055163  -0.202989  -0.115738   0.113298  -0.049125
     4  C    0.077912   0.211202  -0.368478   0.157135  -0.100156   0.025806
     5  C    0.162199  -0.014928   0.262321  -0.032698  -0.034562   0.011096
     6  C    0.107071  -0.212404   0.405237  -0.019252  -0.094029  -0.001445
     7  C    5.702835   0.016922   0.019074  -0.001659   0.002683   0.030964
     8  O    0.016922   8.310048   0.003775   0.004630  -0.004333   0.005806
     9  C    0.019074   0.003775   7.245098  -0.259077   0.013240  -0.000487
    10  C   -0.001659   0.004630  -0.259077   5.531485  -0.070557   0.000295
    11  C    0.002683  -0.004333   0.013240  -0.070557   5.400729  -0.001910
    12  H    0.030964   0.005806  -0.000487   0.000295  -0.001910   0.546786
    13  H    0.004858  -0.039844   0.066807  -0.002888  -0.003173  -0.000080
    14  H    0.005133   0.004264   0.023233  -0.000976  -0.002176   0.003370
    15  H   -0.003012  -0.000628  -0.017561   0.002219   0.007906   0.000012
    16  H    0.000342  -0.022197  -0.016233  -0.011184  -0.000450  -0.000072
    17  H   -0.021009   0.000292  -0.006120   0.000525   0.000263  -0.004471
    18  H    0.013222   0.000339   0.020874   0.002254  -0.020742   0.005208
    19  H   -0.005924  -0.004575  -0.003517  -0.001962   0.005127  -0.004059
    20  H    0.017399   0.009384  -0.013074   0.003593  -0.012190   0.005009
    21  H    0.457541  -0.000135  -0.000294  -0.000031   0.000243  -0.003663
    22  H    0.455240   0.000067   0.000091   0.000027   0.000316   0.004645
    23  H    0.464733   0.000128   0.000619   0.000020  -0.000274  -0.003638
    24  H   -0.002585   0.207896   0.018396  -0.001606  -0.000742  -0.000235
    25  H   -0.000057  -0.000426   0.277200  -0.000526   0.001989  -0.000001
    26  H    0.000001  -0.000416  -0.109501   0.447724   0.004666   0.000000
    27  H    0.000047  -0.000089  -0.096020   0.434472   0.002276   0.000000
    28  H   -0.000014  -0.000024  -0.121919   0.456408  -0.003828   0.000000
    29  H   -0.000776  -0.000132  -0.094595  -0.004496   0.451114  -0.000002
    30  H    0.002949   0.000004  -0.037976  -0.000926   0.424343  -0.000007
    31  H   -0.000427   0.000023  -0.113217   0.005664   0.433805   0.000000
             13         14         15         16         17         18
     1  C    0.001892  -0.010570   0.031734  -0.019070  -0.018383  -0.103013
     2  C    0.151342  -0.066619   0.039232   0.086611   0.001646  -0.040882
     3  C   -0.017500   0.370121   0.440108  -0.036511  -0.011217  -0.120400
     4  C    0.093308   0.018789  -0.118235   0.210340   0.041662   0.067742
     5  C   -0.003036  -0.036264  -0.039170   0.051305   0.307433   0.458164
     6  C    0.007238   0.018258  -0.023758   0.020764   0.033795   0.025608
     7  C    0.004858   0.005133  -0.003012   0.000342  -0.021009   0.013222
     8  O   -0.039844   0.004264  -0.000628  -0.022197   0.000292   0.000339
     9  C    0.066807   0.023233  -0.017561  -0.016233  -0.006120   0.020874
    10  C   -0.002888  -0.000976   0.002219  -0.011184   0.000525   0.002254
    11  C   -0.003173  -0.002176   0.007906  -0.000450   0.000263  -0.020742
    12  H   -0.000080   0.003370   0.000012  -0.000072  -0.004471   0.005208
    13  H    0.629642  -0.000134  -0.000119  -0.004509   0.000012  -0.000063
    14  H   -0.000134   0.539171  -0.028383  -0.007855  -0.005442   0.004950
    15  H   -0.000119  -0.028383   0.562220  -0.000846  -0.002333  -0.003873
    16  H   -0.004509  -0.007855  -0.000846   0.610916  -0.000136  -0.000124
    17  H    0.000012  -0.005442  -0.002333  -0.000136   0.556589  -0.031203
    18  H   -0.000063   0.004950  -0.003873  -0.000124  -0.031203   0.568723
    19  H   -0.004413  -0.000026   0.000010  -0.000169  -0.000131  -0.000028
    20  H   -0.003431   0.000075  -0.000004  -0.000095  -0.000013   0.003045
    21  H   -0.000002   0.000000   0.000002   0.000000   0.000014  -0.000003
    22  H   -0.000002   0.000002   0.000001   0.000000  -0.000177   0.003517
    23  H    0.000002  -0.000001  -0.000004   0.000000   0.002835  -0.000273
    24  H   -0.006650   0.000156  -0.000008   0.009226  -0.000004   0.000000
    25  H   -0.000015   0.000159   0.005178  -0.003871  -0.000016   0.000064
    26  H    0.001307   0.000002   0.000002  -0.000450   0.000000   0.000001
    27  H   -0.000138  -0.000007   0.000010   0.004306   0.000000   0.000000
    28  H   -0.000057   0.000002  -0.000008   0.000174   0.000000   0.000000
    29  H   -0.000047  -0.000001   0.000023  -0.000053  -0.000002  -0.000015
    30  H    0.000170  -0.000055   0.000149  -0.000042   0.000121   0.001545
    31  H   -0.000028   0.000003  -0.000028  -0.000119  -0.000001   0.000127
             19         20         21         22         23         24
     1  C   -0.028426  -0.089154  -0.122817  -0.108224  -0.138474  -0.019611
     2  C   -0.012742  -0.060268  -0.002215  -0.005157  -0.013666   0.151795
     3  C    0.003711  -0.025415  -0.005750  -0.005423  -0.002286  -0.021223
     4  C    0.045769   0.063504   0.003707   0.003744   0.003878  -0.155940
     5  C    0.031383   0.007250   0.022247   0.007876   0.007350   0.005114
     6  C    0.301666   0.408946   0.007119   0.000032   0.036452   0.052794
     7  C   -0.005924   0.017399   0.457541   0.455240   0.464733  -0.002585
     8  O   -0.004575   0.009384  -0.000135   0.000067   0.000128   0.207896
     9  C   -0.003517  -0.013074  -0.000294   0.000091   0.000619   0.018396
    10  C   -0.001962   0.003593  -0.000031   0.000027   0.000020  -0.001606
    11  C    0.005127  -0.012190   0.000243   0.000316  -0.000274  -0.000742
    12  H   -0.004059   0.005009  -0.003663   0.004645  -0.003638  -0.000235
    13  H   -0.004413  -0.003431  -0.000002  -0.000002   0.000002  -0.006650
    14  H   -0.000026   0.000075   0.000000   0.000002  -0.000001   0.000156
    15  H    0.000010  -0.000004   0.000002   0.000001  -0.000004  -0.000008
    16  H   -0.000169  -0.000095   0.000000   0.000000   0.000000   0.009226
    17  H   -0.000131  -0.000013   0.000014  -0.000177   0.002835  -0.000004
    18  H   -0.000028   0.003045  -0.000003   0.003517  -0.000273   0.000000
    19  H    0.534113  -0.027963   0.002630  -0.000115  -0.000006  -0.000028
    20  H   -0.027963   0.552768  -0.000280   0.003452  -0.000005  -0.000304
    21  H    0.002630  -0.000280   0.532080  -0.028465  -0.025247   0.000000
    22  H   -0.000115   0.003452  -0.028465   0.538661  -0.028457   0.000000
    23  H   -0.000006  -0.000005  -0.025247  -0.028457   0.535166   0.000000
    24  H   -0.000028  -0.000304   0.000000   0.000000   0.000000   0.414545
    25  H    0.000004   0.000004   0.000000   0.000000   0.000000  -0.000014
    26  H    0.000006   0.000023   0.000000   0.000000   0.000000   0.000019
    27  H    0.000000  -0.000002   0.000000   0.000000   0.000000   0.000041
    28  H    0.000000  -0.000002   0.000000   0.000000   0.000000   0.000000
    29  H    0.000131   0.001100   0.000000  -0.000008   0.000000  -0.000002
    30  H    0.000013  -0.000648   0.000000  -0.000012   0.000001   0.000000
    31  H   -0.000002   0.000153   0.000000   0.000000   0.000000   0.000000
             25         26         27         28         29         30
     1  C    0.004557   0.001528  -0.000121  -0.000405   0.008292  -0.004036
     2  C    0.021671   0.000515   0.025504   0.008018   0.039008  -0.055341
     3  C    0.002943   0.000695  -0.005863  -0.009446   0.000359   0.034891
     4  C   -0.029460   0.014526  -0.005152   0.031735  -0.014325  -0.007259
     5  C    0.011563   0.001583   0.001220   0.000175   0.001992  -0.026750
     6  C   -0.021310  -0.012527   0.001755  -0.000760  -0.039123   0.028735
     7  C   -0.000057   0.000001   0.000047  -0.000014  -0.000776   0.002949
     8  O   -0.000426  -0.000416  -0.000089  -0.000024  -0.000132   0.000004
     9  C    0.277200  -0.109501  -0.096020  -0.121919  -0.094595  -0.037976
    10  C   -0.000526   0.447724   0.434472   0.456408  -0.004496  -0.000926
    11  C    0.001989   0.004666   0.002276  -0.003828   0.451114   0.424343
    12  H   -0.000001   0.000000   0.000000   0.000000  -0.000002  -0.000007
    13  H   -0.000015   0.001307  -0.000138  -0.000057  -0.000047   0.000170
    14  H    0.000159   0.000002  -0.000007   0.000002  -0.000001  -0.000055
    15  H    0.005178   0.000002   0.000010  -0.000008   0.000023   0.000149
    16  H   -0.003871  -0.000450   0.004306   0.000174  -0.000053  -0.000042
    17  H   -0.000016   0.000000   0.000000   0.000000  -0.000002   0.000121
    18  H    0.000064   0.000001   0.000000   0.000000  -0.000015   0.001545
    19  H    0.000004   0.000006   0.000000   0.000000   0.000131   0.000013
    20  H    0.000004   0.000023  -0.000002  -0.000002   0.001100  -0.000648
    21  H    0.000000   0.000000   0.000000   0.000000   0.000000   0.000000
    22  H    0.000000   0.000000   0.000000   0.000000  -0.000008  -0.000012
    23  H    0.000000   0.000000   0.000000   0.000000   0.000000   0.000001
    24  H   -0.000014   0.000019   0.000041   0.000000  -0.000002   0.000000
    25  H    0.584499   0.005041  -0.003851  -0.004083   0.005095  -0.003606
    26  H    0.005041   0.537416  -0.028903  -0.027629   0.003269  -0.000008
    27  H   -0.003851  -0.028903   0.535470  -0.024718   0.000009  -0.000140
    28  H   -0.004083  -0.027629  -0.024718   0.527501  -0.000232   0.000052
    29  H    0.005095   0.003269   0.000009  -0.000232   0.537494  -0.028421
    30  H   -0.003606  -0.000008  -0.000140   0.000052  -0.028421   0.539585
    31  H   -0.004333  -0.000164   0.000090   0.002786  -0.028367  -0.026099
             31
     1  C   -0.000652
     2  C    0.000993
     3  C    0.000971
     4  C    0.030409
     5  C   -0.001192
     6  C    0.001999
     7  C   -0.000427
     8  O    0.000023
     9  C   -0.113217
    10  C    0.005664
    11  C    0.433805
    12  H    0.000000
    13  H   -0.000028
    14  H    0.000003
    15  H   -0.000028
    16  H   -0.000119
    17  H   -0.000001
    18  H    0.000127
    19  H   -0.000002
    20  H    0.000153
    21  H    0.000000
    22  H    0.000000
    23  H    0.000000
    24  H    0.000000
    25  H   -0.004333
    26  H   -0.000164
    27  H    0.000090
    28  H    0.002786
    29  H   -0.028367
    30  H   -0.026099
    31  H    0.533351
 Mulliken atomic charges:
              1
     1  C    0.296304
     2  C    0.032297
     3  C   -0.508221
     4  C   -0.110247
     5  C   -0.298561
     6  C   -0.394689
     7  C   -0.732003
     8  O   -0.520452
     9  C    0.151150
    10  C   -0.657899
    11  C   -0.595594
    12  H    0.174507
    13  H    0.129549
    14  H    0.170825
    15  H    0.149165
    16  H    0.130002
    17  H    0.155473
    18  H    0.145237
    19  H    0.169522
    20  H    0.157142
    21  H    0.163319
    22  H    0.158370
    23  H    0.161150
    24  H    0.348971
    25  H    0.151602
    26  H    0.161274
    27  H    0.159805
    28  H    0.166274
    29  H    0.162707
    30  H    0.158767
    31  H    0.164254
 Sum of Mulliken atomic charges =   0.00000
 Mulliken charges with hydrogens summed into heavy atoms:
              1
     1  C    0.470812
     2  C    0.161846
     3  C   -0.188232
     4  C    0.019755
     5  C    0.002149
     6  C   -0.068024
     7  C   -0.249165
     8  O   -0.171481
     9  C    0.302752
    10  C   -0.170546
    11  C   -0.109866
 Sum of Mulliken charges with hydrogens summed into heavy atoms =   0.00000
 Electronic spatial extent (au):  <R**2>=           2026.6350
 Charge=              0.0000 electrons
 Dipole moment (field-independent basis, Debye):
    X=              1.7852    Y=             -0.6702    Z=              0.3696  Tot=              1.9424
 Quadrupole moment (field-independent basis, Debye-Ang):
   XX=            -71.7951   YY=            -73.3712   ZZ=            -71.5234
   XY=              3.7384   XZ=              0.3216   YZ=              1.3379
 Traceless Quadrupole moment (field-independent basis, Debye-Ang):
   XX=              0.4348   YY=             -1.1413   ZZ=              0.7065
   XY=              3.7384   XZ=              0.3216   YZ=              1.3379
 Octapole moment (field-independent basis, Debye-Ang**2):
  XXX=              0.9627  YYY=             11.2975  ZZZ=              0.6160  XYY=             14.9406
  XXY=              3.0482  XXZ=              2.8866  XZZ=             -0.4850  YZZ=              5.0691
  YYZ=              6.4595  XYZ=              2.0616
 Hexadecapole moment (field-independent basis, Debye-Ang**3):
 XXXX=          -1711.4809 YYYY=           -637.3159 ZZZZ=           -457.3557 XXXY=            -21.6910
 XXXZ=             -3.7865 YYYX=             32.0810 YYYZ=             21.8854 ZZZX=             -0.5007
 ZZZY=             -3.6243 XXYY=           -389.5838 XXZZ=           -356.2473 YYZZ=           -182.5857
 XXYZ=             -2.3822 YYXZ=              4.0497 ZZXY=             -0.6285
 N-N= 6.973467007455D+02 E-N=-2.480065353851D+03  KE= 4.636951872120D+02
 1\1\GINC-COMPUTE-10-2\SP\RmPW1PW91\6-31+G(d,p)\C10H20O1\ASAROTTI.IQUIR
 \19-Sep-2024\0\\# mPW1PW91/6-31+G** nmr scrf=(pcm,solvent=benzene)\\co
 mment\\0,1\C,0,-2.047762,-0.048158,0.001717\C,0,0.173263,1.135606,-0.4
 96527\C,0,-0.12557,-0.185257,1.664414\C,0,0.898248,0.376036,0.645406\C
 ,0,-1.331277,-0.914209,1.050959\C,0,-1.044724,0.402685,-1.073386\C,0,-
 3.244287,-0.776815,-0.619056\O,0,-0.335633,2.389489,-0.013375\C,0,2.00
 9335,-0.627237,0.202318\C,0,3.246467,0.115914,-0.33611\C,0,1.605717,-1
 .732895,-0.787981\H,0,-2.416195,0.855498,0.506422\H,0,0.884305,1.32955
 2,-1.315515\H,0,-0.512327,0.662943,2.243782\H,0,0.391942,-0.838418,2.3
 7968\H,0,1.46119,1.15079,1.191723\H,0,-2.032879,-1.185558,1.851729\H,0
 ,-1.021113,-1.860381,0.586294\H,0,-1.533504,1.07883,-1.785917\H,0,-0.7
 05794,-0.470697,-1.644118\H,0,-3.764598,-0.142241,-1.346707\H,0,-2.925
 081,-1.688655,-1.141308\H,0,-3.971089,-1.071506,0.147849\H,0,0.408761,
 2.880164,0.368321\H,0,2.324005,-1.130623,1.129066\H,0,3.031965,0.63624
 9,-1.277722\H,0,3.613198,0.860345,0.381072\H,0,4.065079,-0.586161,-0.5
 33812\H,0,1.341048,-1.323259,-1.769834\H,0,0.761001,-2.329347,-0.43224
 9\H,0,2.448687,-2.417458,-0.942277\\Version=AM64L-G09RevC.01\State=1-A
 \HF=-468.2769283\RMSD=6.074e-09\Dipole=0.7023604,-0.2636597,0.1454112\
 Quadrupole=0.3232806,-0.8485538,0.5252732,2.7794156,0.2391155,0.994728
 1\PG=C01 [X(C10H20O1)]\\@


 IF YOU DON'T HAVE THE LAW - ARGUE THE FACTS.
 IF YOU DON'T HAVE THE FACTS - ARGUE THE LAW.
 IF YOU DON'T HAVE EITHER - POUND THE TABLE.
 Job cpu time:  0 days  0 hours  9 minutes 40.7 seconds.
 File lengths (MBytes):  RWF=    121 Int=      0 D2E=      0 Chk=      7 Scr=      1
 Normal termination of Gaussian 09 at Thu Sep 19 08:58:34 2024.
