 Entering Gaussian System, Link 0=g09
 Input=/home/asarotti.iquir/SCF2/03_Mentol09_OptB_NMR_benzene.gjc
 Output=/home/asarotti.iquir/SCF2/03_Mentol09_OptB_NMR_benzene.log
 Initial command:
 /opt/ohpc/pub/apps/software/Gaussian/09/AMD64.SSE4a-enabled/g09/l1.exe /local/asarotti.iquir/Gau-1840416.inp -scrdir=/local/asarotti.iquir/
 Entering Link 1 = /opt/ohpc/pub/apps/software/Gaussian/09/AMD64.SSE4a-enabled/g09/l1.exe PID=   1840417.
  
 Copyright (c) 1988,1990,1992,1993,1995,1998,2003,2009,2011,
            Gaussian, Inc.  All Rights Reserved.
  
 This is part of the Gaussian(R) 09 program.  It is based on
 the Gaussian(R) 03 system (copyright 2003, Gaussian, Inc.),
 the Gaussian(R) 98 system (copyright 1998, Gaussian, Inc.),
 the Gaussian(R) 94 system (copyright 1995, Gaussian, Inc.),
 the Gaussian 92(TM) system (copyright 1992, Gaussian, Inc.),
 the Gaussian 90(TM) system (copyright 1990, Gaussian, Inc.),
 the Gaussian 88(TM) system (copyright 1988, Gaussian, Inc.),
 the Gaussian 86(TM) system (copyright 1986, Carnegie Mellon
 University), and the Gaussian 82(TM) system (copyright 1983,
 Carnegie Mellon University). Gaussian is a federally registered
 trademark of Gaussian, Inc.
  
 This software contains proprietary and confidential information,
 including trade secrets, belonging to Gaussian, Inc.
  
 This software is provided under written license and may be
 used, copied, transmitted, or stored only in accord with that
 written license.
  
 The following legend is applicable only to US Government
 contracts under FAR:
  
                    RESTRICTED RIGHTS LEGEND
  
 Use, reproduction and disclosure by the US Government is
 subject to restrictions as set forth in subparagraphs (a)
 and (c) of the Commercial Computer Software - Restricted
 Rights clause in FAR 52.227-19.
  
 Gaussian, Inc.
 340 Quinnipiac St., Bldg. 40, Wallingford CT 06492
  
  
 ---------------------------------------------------------------
 Warning -- This program may not be used in any manner that
 competes with the business of Gaussian, Inc. or will provide
 assistance to any competitor of Gaussian, Inc.  The licensee
 of this program is prohibited from giving any competitor of
 Gaussian, Inc. access to this program.  By using this program,
 the user acknowledges that Gaussian, Inc. is engaged in the
 business of creating and licensing software in the field of
 computational chemistry and represents and warrants to the
 licensee that it is not a competitor of Gaussian, Inc. and that
 it will not use this program in any manner prohibited above.
 ---------------------------------------------------------------
  

 Cite this work as:
 Gaussian 09, Revision C.01,
 M. J. Frisch, G. W. Trucks, H. B. Schlegel, G. E. Scuseria, 
 M. A. Robb, J. R. Cheeseman, G. Scalmani, V. Barone, B. Mennucci, 
 G. A. Petersson, H. Nakatsuji, M. Caricato, X. Li, H. P. Hratchian, 
 A. F. Izmaylov, J. Bloino, G. Zheng, J. L. Sonnenberg, M. Hada, 
 M. Ehara, K. Toyota, R. Fukuda, J. Hasegawa, M. Ishida, T. Nakajima, 
 Y. Honda, O. Kitao, H. Nakai, T. Vreven, J. A. Montgomery, Jr., 
 J. E. Peralta, F. Ogliaro, M. Bearpark, J. J. Heyd, E. Brothers, 
 K. N. Kudin, V. N. Staroverov, T. Keith, R. Kobayashi, J. Normand, 
 K. Raghavachari, A. Rendell, J. C. Burant, S. S. Iyengar, J. Tomasi, 
 M. Cossi, N. Rega, J. M. Millam, M. Klene, J. E. Knox, J. B. Cross, 
 V. Bakken, C. Adamo, J. Jaramillo, R. Gomperts, R. E. Stratmann, 
 O. Yazyev, A. J. Austin, R. Cammi, C. Pomelli, J. W. Ochterski, 
 R. L. Martin, K. Morokuma, V. G. Zakrzewski, G. A. Voth, 
 P. Salvador, J. J. Dannenberg, S. Dapprich, A. D. Daniels, 
 O. Farkas, J. B. Foresman, J. V. Ortiz, J. Cioslowski, 
 and D. J. Fox, Gaussian, Inc., Wallingford CT, 2010.
 
 ******************************************
 Gaussian 09:  AM64L-G09RevC.01 23-Sep-2011
                19-Sep-2024 
 ******************************************
 %nprocshared=4
 Will use up to    4 processors via shared memory.
 %mem=100mw
 --------------------------------------------------
 # mPW1PW91/6-31+G** nmr scrf=(pcm,solvent=benzene)
 --------------------------------------------------
 1/38=1/1;
 2/12=2,17=6,18=5,40=1/2;
 3/5=1,6=6,7=111,11=2,16=1,25=1,30=1,70=2201,72=12,74=-7/1,2,8,3;
 4//1;
 5/5=2,38=5,53=12/2;
 8/6=1,10=90,11=11/1;
 10/13=100,45=16/2;
 6/7=2,8=2,9=2,10=2,28=1/1;
 99/9=1/99;
 -------
 comment
 -------
 Charge =  0 Multiplicity = 1
 Symbolic Z-Matrix:
 6                     2.2129   -0.11199   0.26459 
 6                     0.1358    1.09768  -0.61841 
 6                    -0.11318  -1.06385   0.68428 
 6                    -0.70387  -0.18954  -0.438 
 6                     1.36758  -1.38653   0.43179 
 6                     1.61519   0.77017  -0.84564 
 6                     3.68538  -0.43573  -0.01079 
 8                     0.08006   1.97292   0.5187 
 6                    -2.23272   0.08245  -0.30764 
 6                    -2.71426   0.38604   1.1238 
 6                    -3.05403  -1.07915  -0.8925 
 1                     2.15379   0.4556    1.20382 
 1                    -0.24446   1.63522  -1.50344 
 1                    -0.68727  -1.99442   0.78196 
 1                    -0.20118  -0.53439   1.64046 
 1                    -0.57101  -0.73938  -1.38411 
 1                     1.46099  -2.00186  -0.4772 
 1                     1.76458  -1.99228   1.25761 
 1                     1.71189   0.25263  -1.81161 
 1                     2.17263   1.71141  -0.92715 
 1                     3.79675  -1.00261  -0.94482 
 1                     4.28484   0.47804  -0.10325 
 1                     4.11741  -1.0392    0.79683 
 1                    -0.80204   2.37179   0.53974 
 1                    -2.45089   0.96847  -0.92714 
 1                    -2.65063  -0.50503   1.75879 
 1                    -2.12407   1.16841   1.61051 
 1                    -3.76291   0.70606   1.11304 
 1                    -2.85992  -2.01367  -0.35122 
 1                    -2.81203  -1.24865  -1.94831 
 1                    -4.12967  -0.87692  -0.8229 
 
                          Input orientation:                          
 ---------------------------------------------------------------------
 Center     Atomic      Atomic             Coordinates (Angstroms)
 Number     Number       Type             X           Y           Z
 ---------------------------------------------------------------------
      1          6           0        2.212901   -0.111987    0.264586
      2          6           0        0.135801    1.097684   -0.618412
      3          6           0       -0.113182   -1.063851    0.684279
      4          6           0       -0.703870   -0.189538   -0.437998
      5          6           0        1.367575   -1.386525    0.431790
      6          6           0        1.615189    0.770172   -0.845644
      7          6           0        3.685375   -0.435725   -0.010793
      8          8           0        0.080059    1.972917    0.518701
      9          6           0       -2.232721    0.082454   -0.307640
     10          6           0       -2.714257    0.386035    1.123801
     11          6           0       -3.054025   -1.079146   -0.892500
     12          1           0        2.153791    0.455602    1.203818
     13          1           0       -0.244462    1.635220   -1.503439
     14          1           0       -0.687274   -1.994419    0.781955
     15          1           0       -0.201181   -0.534392    1.640459
     16          1           0       -0.571006   -0.739382   -1.384107
     17          1           0        1.460988   -2.001858   -0.477204
     18          1           0        1.764583   -1.992276    1.257608
     19          1           0        1.711892    0.252629   -1.811612
     20          1           0        2.172634    1.711411   -0.927153
     21          1           0        3.796753   -1.002613   -0.944819
     22          1           0        4.284844    0.478043   -0.103252
     23          1           0        4.117411   -1.039199    0.796828
     24          1           0       -0.802039    2.371789    0.539739
     25          1           0       -2.450893    0.968470   -0.927144
     26          1           0       -2.650629   -0.505030    1.758786
     27          1           0       -2.124068    1.168406    1.610505
     28          1           0       -3.762911    0.706062    1.113044
     29          1           0       -2.859921   -2.013673   -0.351218
     30          1           0       -2.812029   -1.248647   -1.948314
     31          1           0       -4.129666   -0.876919   -0.822898
 ---------------------------------------------------------------------
                    Distance matrix (angstroms):
                    1          2          3          4          5
     1  C    0.000000
     2  C    2.560729   0.000000
     3  C    2.548107   2.535987   0.000000
     4  C    3.001198   1.547429   1.540403   0.000000
     5  C    1.538499   2.965044   1.536395   2.545622   0.000000
     6  C    1.538855   1.532151   2.948147   2.542686   2.518828
     7  C    1.532586   3.914080   3.912378   4.416852   2.544032
     8  O    2.993395   1.436024   3.047412   2.491190   3.598764
     9  C    4.486514   2.595605   2.605833   1.558319   3.958129
    10  C    5.026247   3.415345   3.010140   2.610011   4.503576
    11  C    5.478572   3.871525   3.336918   2.553665   4.625881
    12  H    1.099003   2.793756   2.778097   3.358272   2.146531
    13  H    3.495322   1.103095   3.476827   2.162397   3.933792
    14  H    3.496031   3.492790   1.097761   2.178567   2.171303
    15  H    2.810559   2.807085   1.096518   2.166011   2.155924
    16  H    3.295747   2.112031   2.143153   1.102317   2.733930
    17  H    2.165003   3.373903   2.169542   2.823588   1.101649
    18  H    2.173147   3.964875   2.171792   3.495455   1.098419
    19  H    2.166692   2.149862   3.360578   2.813936   2.799684
    20  H    2.178679   2.149574   3.940019   3.482406   3.477363
    21  H    2.182765   4.233244   4.236190   4.601474   2.818394
    22  H    2.185495   4.226571   4.726550   5.044302   3.503333
    23  H    2.184070   4.735229   4.232162   5.048908   2.795619
    24  H    3.915957   1.960663   3.506998   2.743356   4.340945
    25  H    4.933415   2.608256   3.491691   2.152286   4.687579
    26  H    5.103042   3.997994   2.811669   2.952163   4.322489
    27  H    4.718072   3.174914   3.143967   2.838545   4.484263
    28  H    6.090929   4.283837   4.078842   3.544794   5.582554
    29  H    5.452444   4.327388   3.085286   2.825519   4.344898
    30  H    5.607035   3.995449   3.774715   2.801268   4.811756
    31  H    6.480424   4.704793   4.294027   3.515212   5.661590
                    6          7          8          9         10
     6  C    0.000000
     7  C    2.537092   0.000000
     8  O    2.380054   4.368092   0.000000
     9  C    3.945734   5.948150   3.099297   0.000000
    10  C    4.771832   6.551174   3.269945   1.540474   0.000000
    11  C    5.022323   6.827218   4.596636   1.538153   2.515486
    12  H    2.142275   2.148370   2.659322   4.654593   4.869203
    13  H    2.153904   4.686195   2.075669   2.791808   3.816116
    14  H    3.948845   4.709356   4.049427   2.808741   3.145168
    15  H    3.343919   4.223942   2.761166   2.881448   2.725743
    16  H    2.710746   4.482742   3.376556   2.143710   3.485641
    17  H    2.800656   2.760110   4.324075   4.244596   5.069312
    18  H    3.475213   2.778693   4.371082   4.767908   5.072896
    19  H    1.100135   2.758879   3.324549   4.225028   5.312743
    20  H    1.096959   2.781779   2.556902   4.737557   5.463034
    21  H    2.812796   1.098258   4.980912   6.159377   6.971426
    22  H    2.786314   1.096761   4.505740   6.532757   7.106444
    23  H    3.497521   1.096854   5.044840   6.542334   6.986408
    24  H    3.213636   5.321852   0.968317   2.829480   2.817965
    25  H    4.071730   6.361230   3.083034   1.102909   2.148247
    26  H    5.158139   6.578842   3.890333   2.188584   1.096016
    27  H    4.491470   6.241111   2.587943   2.206893   1.094216
    28  H    5.724031   7.618638   4.089815   2.179154   1.096453
    29  H    5.293473   6.741417   5.029229   2.188385   2.820549
    30  H    4.989165   6.828696   4.982852   2.190717   3.481327
    31  H    5.976352   7.869500   5.257684   2.187301   2.718101
                   11         12         13         14         15
    11  C    0.000000
    12  H    5.819910   0.000000
    13  H    3.954070   3.804255   0.000000
    14  H    3.040236   3.775211   4.312005   0.000000
    15  H    3.853746   2.591647   3.820103   1.762099   0.000000
    16  H    2.553919   3.943331   2.399918   2.506085   3.053980
    17  H    4.627009   3.056946   4.146089   2.490094   3.066066
    18  H    5.354975   2.479210   4.981804   2.497569   2.477141
    19  H    5.033126   3.054389   2.415336   4.187101   4.024431
    20  H    5.925063   2.473550   2.486014   4.983302   4.155871
    21  H    6.851405   3.072842   4.858152   4.906315   4.783970
    22  H    7.543656   2.500064   4.879979   5.623043   4.918330
    23  H    7.367830   2.501175   5.609784   4.898741   4.429083
    24  H    4.362534   3.584648   2.242321   4.374427   3.165202
    25  H    2.134877   5.099720   2.375923   3.848387   3.729931
    26  H    2.742564   4.930847   4.583931   2.650894   2.452480
    27  H    3.490178   4.355865   3.667081   3.571321   2.568640
    28  H    2.776994   5.922696   4.482053   4.106307   3.808256
    29  H    1.097271   5.801100   4.634939   2.450479   3.636475
    30  H    1.096374   6.123706   3.886773   3.539086   4.495106
    31  H    1.096697   6.735356   4.676408   3.959094   4.649564
                   16         17         18         19         20
    16  H    0.000000
    17  H    2.558382   0.000000
    18  H    3.742109   1.761203   0.000000
    19  H    2.525563   2.631788   3.802958   0.000000
    20  H    3.707122   3.807527   4.319373   1.767087   0.000000
    21  H    4.397679   2.583206   3.155920   2.583333   3.162910
    22  H    5.167397   3.776759   3.782345   3.096674   2.580977
    23  H    5.179539   3.099428   2.580014   3.776149   3.784194
    24  H    3.665235   5.028345   5.113506   4.042220   3.381797
    25  H    2.580610   4.932353   5.595480   4.315494   4.682837
    26  H    3.775914   4.913811   4.685849   5.688003   5.949012
    27  H    3.875482   5.221277   5.023550   5.221506   5.019583
    28  H    4.302712   6.095149   6.152651   6.223559   6.356400
    29  H    2.815992   4.322761   4.896408   5.307575   6.287652
    30  H    2.366403   4.581503   5.637047   4.768478   5.886559
    31  H    3.605265   5.713178   6.349386   6.031354   6.813905
                   21         22         23         24         25
    21  H    0.000000
    22  H    1.771669   0.000000
    23  H    1.771297   1.772061   0.000000
    24  H    5.894013   5.465902   5.991821   0.000000
    25  H    6.551226   6.803636   7.081344   2.615295   0.000000
    26  H    7.008980   7.248062   6.856899   3.630351   3.070068
    27  H    6.804346   6.669911   6.670206   2.083850   2.566408
    28  H    8.018908   8.142342   8.077463   3.445299   2.439798
    29  H    6.759136   7.570852   7.137981   4.925542   3.064665
    30  H    6.689061   7.533347   7.456327   4.830944   2.467552
    31  H    7.928353   8.553233   8.406196   4.846028   2.496919
                   26         27         28         29         30
    26  H    0.000000
    27  H    1.760580   0.000000
    28  H    1.766606   1.773989   0.000000
    29  H    2.602292   3.809916   3.218138   0.000000
    30  H    3.784390   4.356676   3.754594   1.771517   0.000000
    31  H    2.998490   3.758620   2.527491   1.768317   1.772261
                   31
    31  H    0.000000
 Stoichiometry    C10H20O
 Framework group  C1[X(C10H20O)]
 Deg. of freedom    87
 Full point group                 C1      NOp   1
 Largest Abelian subgroup         C1      NOp   1
 Largest concise Abelian subgroup C1      NOp   1
                         Standard orientation:                         
 ---------------------------------------------------------------------
 Center     Atomic      Atomic             Coordinates (Angstroms)
 Number     Number       Type             X           Y           Z
 ---------------------------------------------------------------------
      1          6           0       -2.212901   -0.111987   -0.264586
      2          6           0       -0.135801    1.097684    0.618412
      3          6           0        0.113182   -1.063851   -0.684279
      4          6           0        0.703870   -0.189538    0.437998
      5          6           0       -1.367575   -1.386525   -0.431790
      6          6           0       -1.615189    0.770172    0.845644
      7          6           0       -3.685375   -0.435725    0.010793
      8          8           0       -0.080059    1.972917   -0.518701
      9          6           0        2.232721    0.082454    0.307640
     10          6           0        2.714257    0.386035   -1.123801
     11          6           0        3.054025   -1.079146    0.892500
     12          1           0       -2.153791    0.455602   -1.203818
     13          1           0        0.244462    1.635220    1.503439
     14          1           0        0.687274   -1.994419   -0.781955
     15          1           0        0.201181   -0.534392   -1.640459
     16          1           0        0.571006   -0.739382    1.384107
     17          1           0       -1.460988   -2.001858    0.477204
     18          1           0       -1.764583   -1.992276   -1.257608
     19          1           0       -1.711892    0.252629    1.811612
     20          1           0       -2.172634    1.711411    0.927153
     21          1           0       -3.796753   -1.002613    0.944819
     22          1           0       -4.284844    0.478043    0.103252
     23          1           0       -4.117411   -1.039199   -0.796828
     24          1           0        0.802039    2.371789   -0.539739
     25          1           0        2.450893    0.968470    0.927144
     26          1           0        2.650629   -0.505030   -1.758786
     27          1           0        2.124068    1.168406   -1.610505
     28          1           0        3.762911    0.706062   -1.113044
     29          1           0        2.859921   -2.013673    0.351218
     30          1           0        2.812029   -1.248647    1.948314
     31          1           0        4.129666   -0.876919    0.822898
 ---------------------------------------------------------------------
 Rotational constants (GHZ):      1.9510247      0.6646378      0.5930542
 Standard basis: 6-31+G(d,p) (6D, 7F)
 There are   309 symmetry adapted basis functions of A   symmetry.
 Integral buffers will be    131072 words long.
 Raffenetti 2 integral format.
 Two-electron integral symmetry is turned on.
   309 basis functions,   492 primitive gaussians,   309 cartesian basis functions
    44 alpha electrons       44 beta electrons
       nuclear repulsion energy       691.7276447582 Hartrees.
 NAtoms=   31 NActive=   31 NUniq=   31 SFac= 1.00D+00 NAtFMM=   60 NAOKFM=F Big=F
 ------------------------------------------------------------------------------
 Polarizable Continuum Model (PCM)
 =================================
 Model                : PCM.
 Atomic radii         : UFF (Universal Force Field).
 Polarization charges : Total charges.
 Charge compensation  : None.
 Solution method      : Matrix inversion.
 Cavity type          : Scaled VdW (van der Waals Surface) (Alpha=1.100).
 Cavity algorithm     : GePol (No added spheres)
                        Default sphere list used, NSphG=   31.
                        Lebedev-Laikov grids with approx.  5.0 points / Ang**2.
                        Smoothing algorithm: Karplus/York (Gamma=1.0000).
                        Polarization charges: spherical gaussians, with
                                              point-specific exponents (IZeta= 3).
                        Self-potential: point-specific (ISelfS= 7).
                        Self-field    : sphere-specific E.n sum rule (ISelfD= 2).
 Solvent              : Benzene, Eps=   2.270600 Eps(inf)=   2.253301
 ------------------------------------------------------------------------------
 One-electron integrals computed using PRISM.
 NBasis=   309 RedAO= T  NBF=   309
 NBsUse=   309 1.00D-06 NBFU=   309
 Harris functional with IExCor=  908 diagonalized for initial guess.
 ExpMin= 4.38D-02 ExpMax= 5.48D+03 ExpMxC= 8.25D+02 IAcc=2 IRadAn=         4 AccDes= 0.00D+00
 HarFok:  IExCor=  908 AccDes= 0.00D+00 IRadAn=         4 IDoV= 1
 ScaDFX=  1.000000  1.000000  1.000000  1.000000
 FoFCou: FMM=F IPFlag=           0 FMFlag=      100000 FMFlg1=           0
         NFxFlg=           0 DoJE=T BraDBF=F KetDBF=T FulRan=T
         Omega=  0.000000  0.000000  1.000000  0.000000  0.000000 ICntrl=     500 IOpCl=  0
         NMat0=    1 NMatS0=    1 NMatT0=    0 NMatD0=    1 NMtDS0=    0 NMtDT0=    0
         I1Cent=           4 NGrid=           0.
 Petite list used in FoFCou.
 Initial guess orbital symmetries:
       Occupied  (A) (A) (A) (A) (A) (A) (A) (A) (A) (A) (A) (A)
                 (A) (A) (A) (A) (A) (A) (A) (A) (A) (A) (A) (A)
                 (A) (A) (A) (A) (A) (A) (A) (A) (A) (A) (A) (A)
                 (A) (A) (A) (A) (A) (A) (A) (A)
       Virtual   (A) (A) (A) (A) (A) (A) (A) (A) (A) (A) (A) (A)
                 (A) (A) (A) (A) (A) (A) (A) (A) (A) (A) (A) (A)
                 (A) (A) (A) (A) (A) (A) (A) (A) (A) (A) (A) (A)
                 (A) (A) (A) (A) (A) (A) (A) (A) (A) (A) (A) (A)
                 (A) (A) (A) (A) (A) (A) (A) (A) (A) (A) (A) (A)
                 (A) (A) (A) (A) (A) (A) (A) (A) (A) (A) (A) (A)
                 (A) (A) (A) (A) (A) (A) (A) (A) (A) (A) (A) (A)
                 (A) (A) (A) (A) (A) (A) (A) (A) (A) (A) (A) (A)
                 (A) (A) (A) (A) (A) (A) (A) (A) (A) (A) (A) (A)
                 (A) (A) (A) (A) (A) (A) (A) (A) (A) (A) (A) (A)
                 (A) (A) (A) (A) (A) (A) (A) (A) (A) (A) (A) (A)
                 (A) (A) (A) (A) (A) (A) (A) (A) (A) (A) (A) (A)
                 (A) (A) (A) (A) (A) (A) (A) (A) (A) (A) (A) (A)
                 (A) (A) (A) (A) (A) (A) (A) (A) (A) (A) (A) (A)
                 (A) (A) (A) (A) (A) (A) (A) (A) (A) (A) (A) (A)
                 (A) (A) (A) (A) (A) (A) (A) (A) (A) (A) (A) (A)
                 (A) (A) (A) (A) (A) (A) (A) (A) (A) (A) (A) (A)
                 (A) (A) (A) (A) (A) (A) (A) (A) (A) (A) (A) (A)
                 (A) (A) (A) (A) (A) (A) (A) (A) (A) (A) (A) (A)
                 (A) (A) (A) (A) (A) (A) (A) (A) (A) (A) (A) (A)
                 (A) (A) (A) (A) (A) (A) (A) (A) (A) (A) (A) (A)
                 (A) (A) (A) (A) (A) (A) (A) (A) (A) (A) (A) (A)
                 (A)
 The electronic state of the initial guess is 1-A.
 Requested convergence on RMS density matrix=1.00D-08 within 128 cycles.
 Requested convergence on MAX density matrix=1.00D-06.
 Requested convergence on             energy=1.00D-06.
 No special actions if energy rises.
 Error on total polarization charges =  0.00939
 SCF Done:  E(RmPW1PW91) =  -468.281985373     A.U. after   12 cycles
             Convg  =    0.5950D-08             -V/T =  2.0099
 Range of M.O.s used for correlation:     1   309
 NBasis=   309 NAE=    44 NBE=    44 NFC=     0 NFV=     0
 NROrb=    309 NOA=    44 NOB=    44 NVA=   265 NVB=   265

 **** Warning!!: The largest alpha MO coefficient is  0.98215622D+02

 NEqPCM:  Using equilibrium solvation (IEInf=0, Eps=   2.2706, EpsInf=   2.2533)
          Differentiating once with respect to magnetic field using GIAOs.
          Electric field/nuclear overlap derivatives assumed to be zero.
 FoFCou: FMM=F IPFlag=           0 FMFlag=    10101102 FMFlg1=           0
         NFxFlg=    40000000 DoJE=F BraDBF=F KetDBF=T FulRan=T
         Omega=  0.000000  0.000000  1.000000  0.000000  0.000000 ICntrl=    6100 IOpCl=  0
         NMat0=    1 NMatS0=    1 NMatT0=    0 NMatD0=    1 NMtDS0=    0 NMtDT0=    0
         I1Cent=           7 NGrid=        1931.
 Symmetry not used in FoFCou.
          There are     3 degrees of freedom in the 1st order CPHF.  IDoFFX=0.
      3 vectors produced by pass  0 Test12= 3.89D-13 3.33D-08 XBig12= 3.80D+01 1.13D+00.
 AX will form     3 AO Fock derivatives at one time.
      3 vectors produced by pass  1 Test12= 3.89D-13 3.33D-08 XBig12= 8.06D-02 4.06D-02.
      3 vectors produced by pass  2 Test12= 3.89D-13 3.33D-08 XBig12= 1.68D-04 2.46D-03.
      3 vectors produced by pass  3 Test12= 3.89D-13 3.33D-08 XBig12= 1.05D-06 3.54D-04.
      3 vectors produced by pass  4 Test12= 3.89D-13 3.33D-08 XBig12= 3.83D-09 1.37D-05.
      3 vectors produced by pass  5 Test12= 3.89D-13 3.33D-08 XBig12= 8.02D-12 4.04D-07.
 Inverted reduced A of dimension    18 with in-core refinement.
 Calculating GIAO nuclear magnetic shielding tensors.
 SCF GIAO Magnetic shielding tensor (ppm):
      1  C    Isotropic =   167.2940   Anisotropy =    14.9139
   XX=   172.1784   YX=    -2.5802   ZX=    -2.8154
   XY=    -6.1869   YY=   168.2264   ZY=     1.2113
   XZ=   -10.1576   YZ=     0.0005   ZZ=   161.4772
   Eigenvalues:   158.2243   166.4211   177.2366
      2  C    Isotropic =   119.1253   Anisotropy =    32.5405
   XX=   111.5827   YX=    -4.9998   ZX=   -10.4954
   XY=   -11.1895   YY=   119.2601   ZY=   -19.8818
   XZ=     0.6835   YZ=   -15.0881   ZZ=   126.5329
   Eigenvalues:    98.3666   118.1902   140.8189
      3  C    Isotropic =   173.4725   Anisotropy =    19.0797
   XX=   185.6143   YX=     0.0735   ZX=    -3.5162
   XY=     3.8594   YY=   168.2405   ZY=     2.7012
   XZ=    -1.8883   YZ=    -2.0596   ZZ=   166.5625
   Eigenvalues:   166.0170   168.2082   186.1922
      4  C    Isotropic =   147.5253   Anisotropy =    14.6138
   XX=   152.9349   YX=    -5.1997   ZX=    -1.4440
   XY=     7.2493   YY=   142.7546   ZY=    -8.0995
   XZ=    -6.1211   YZ=   -10.2139   ZZ=   146.8863
   Eigenvalues:   135.2898   150.0181   157.2678
      5  C    Isotropic =   159.2584   Anisotropy =    19.9684
   XX=   167.0481   YX=    -4.3783   ZX=    -5.3990
   XY=   -11.6815   YY=   158.9630   ZY=    -2.1644
   XZ=    -3.6173   YZ=     0.5593   ZZ=   151.7642
   Eigenvalues:   149.2857   155.9189   172.5707
      6  C    Isotropic =   152.3606   Anisotropy =    22.1534
   XX=   161.1967   YX=    10.5459   ZX=    -4.5688
   XY=    10.3346   YY=   148.5813   ZY=    -2.9194
   XZ=     8.2416   YZ=     0.1384   ZZ=   147.3036
   Eigenvalues:   141.8650   148.0872   167.1295
      7  C    Isotropic =   173.0596   Anisotropy =    37.9369
   XX=   196.9923   YX=     4.5739   ZX=    -1.0092
   XY=     7.3676   YY=   162.9598   ZY=     0.9513
   XZ=    -6.7376   YZ=     1.0355   ZZ=   159.2267
   Eigenvalues:   158.1850   162.6429   198.3509
      8  O    Isotropic =   292.5524   Anisotropy =    73.1493
   XX=   321.4793   YX=    31.9634   ZX=   -32.6385
   XY=    19.5353   YY=   285.0588   ZY=    -5.6233
   XZ=    -8.5903   YZ=    -7.6232   ZZ=   271.1191
   Eigenvalues:   263.2303   273.1082   341.3186
      9  C    Isotropic =   160.9632   Anisotropy =    19.9800
   XX=   173.5471   YX=     3.5915   ZX=     2.8117
   XY=     2.5439   YY=   155.4981   ZY=     4.2002
   XZ=     0.2428   YZ=     3.4287   ZZ=   153.8443
   Eigenvalues:   150.7427   157.8636   174.2832
     10  C    Isotropic =   175.9209   Anisotropy =    25.5510
   XX=   172.2117   YX=     0.2872   ZX=    -9.9936
   XY=    -1.3747   YY=   169.3990   ZY=    -8.5264
   XZ=    -4.7727   YZ=   -11.6887   ZZ=   186.1520
   Eigenvalues:   162.9503   171.8575   192.9549
     11  C    Isotropic =   172.1333   Anisotropy =    37.8447
   XX=   174.5103   YX=   -12.5484   ZX=     5.3771
   XY=   -17.2017   YY=   171.4994   ZY=   -21.5139
   XZ=    -1.2109   YZ=   -17.4101   ZZ=   170.3901
   Eigenvalues:   148.0504   170.9864   197.3631
     12  H    Isotropic =    29.5512   Anisotropy =     5.5993
   XX=    30.0151   YX=     0.6685   ZX=     1.4602
   XY=     0.9668   YY=    27.5837   ZY=    -3.4891
   XZ=     1.1077   YZ=    -3.3113   ZZ=    31.0547
   Eigenvalues:    25.1155    30.2540    33.2840
     13  H    Isotropic =    27.6468   Anisotropy =     5.5442
   XX=    25.8134   YX=     0.0129   ZX=     0.3011
   XY=     0.8100   YY=    26.5847   ZY=     0.6918
   XZ=     1.1315   YZ=     2.8600   ZZ=    30.5424
   Eigenvalues:    25.6336    25.9639    31.3430
     14  H    Isotropic =    30.2360   Anisotropy =     8.5453
   XX=    33.0505   YX=    -2.7723   ZX=    -0.1909
   XY=    -2.0923   YY=    32.9228   ZY=     3.2691
   XZ=    -0.1827   YZ=     2.9612   ZZ=    24.7348
   Eigenvalues:    23.6437    31.1315    35.9329
     15  H    Isotropic =    29.8577   Anisotropy =     5.5851
   XX=    30.3846   YX=     2.2220   ZX=    -1.4142
   XY=     1.3202   YY=    26.3349   ZY=    -0.4917
   XZ=    -1.0531   YZ=    -0.6516   ZZ=    32.8535
   Eigenvalues:    25.6681    30.3238    33.5811
     16  H    Isotropic =    30.4570   Anisotropy =     4.9848
   XX=    32.5312   YX=    -0.8027   ZX=     0.3580
   XY=    -1.1298   YY=    27.4331   ZY=    -3.0946
   XZ=     0.3898   YZ=    -3.4442   ZZ=    31.4068
   Eigenvalues:    25.5314    32.0594    33.7803
     17  H    Isotropic =    30.6900   Anisotropy =     6.8339
   XX=    30.9707   YX=     0.9272   ZX=    -1.3633
   XY=     1.0222   YY=    32.7408   ZY=    -3.8179
   XZ=    -0.7547   YZ=    -3.4772   ZZ=    28.3585
   Eigenvalues:    26.2512    30.5729    35.2459
     18  H    Isotropic =    29.8904   Anisotropy =     8.8157
   XX=    30.4775   YX=     1.7084   ZX=     1.5758
   XY=     2.0307   YY=    30.2123   ZY=     5.1696
   XZ=     1.1977   YZ=     5.0637   ZZ=    28.9814
   Eigenvalues:    24.4358    29.4678    35.7675
     19  H    Isotropic =    30.5334   Anisotropy =     6.5667
   XX=    30.5474   YX=     0.9206   ZX=    -1.9968
   XY=     0.6023   YY=    26.9578   ZY=    -0.1869
   XZ=    -1.6817   YZ=    -0.3032   ZZ=    34.0951
   Eigenvalues:    26.8005    29.8886    34.9112
     20  H    Isotropic =    29.7598   Anisotropy =     8.0230
   XX=    30.6171   YX=    -2.4625   ZX=    -0.9790
   XY=    -1.7045   YY=    32.5609   ZY=     3.1711
   XZ=    -1.6669   YZ=     2.9838   ZZ=    26.1014
   Eigenvalues:    24.8298    29.3412    35.1085
     21  H    Isotropic =    31.0919   Anisotropy =     8.4937
   XX=    32.0633   YX=     2.4335   ZX=    -3.3012
   XY=     1.9502   YY=    29.4097   ZY=    -3.0342
   XZ=    -2.6506   YZ=    -2.9861   ZZ=    31.8028
   Eigenvalues:    27.3592    29.1622    36.7544
     22  H    Isotropic =    30.6460   Anisotropy =    10.7092
   XX=    35.3368   YX=    -4.8125   ZX=    -0.4065
   XY=    -3.4786   YY=    30.6330   ZY=     0.2310
   XZ=    -0.4637   YZ=     0.8043   ZZ=    25.9681
   Eigenvalues:    25.9113    28.2412    37.7854
     23  H    Isotropic =    30.5625   Anisotropy =    10.5552
   XX=    33.6504   YX=     3.5535   ZX=     4.1012
   XY=     2.6855   YY=    28.3495   ZY=     3.3079
   XZ=     2.8799   YZ=     2.6227   ZZ=    29.6875
   Eigenvalues:    25.9626    28.1255    37.5993
     24  H    Isotropic =    30.5464   Anisotropy =    17.2468
   XX=    37.5580   YX=     6.1439   ZX=    -0.9418
   XY=     6.3752   YY=    30.9524   ZY=    -4.6913
   XZ=    -2.1523   YZ=    -4.1597   ZZ=    23.1289
   Eigenvalues:    21.0315    28.5634    42.0443
     25  H    Isotropic =    29.9668   Anisotropy =     6.4616
   XX=    29.3532   YX=     1.1606   ZX=     1.9354
   XY=     0.4630   YY=    31.3477   ZY=     3.2888
   XZ=     1.7269   YZ=     3.1132   ZZ=    29.1994
   Eigenvalues:    26.4798    29.1460    34.2745
     26  H    Isotropic =    30.7999   Anisotropy =     7.0040
   XX=    29.8882   YX=     0.0314   ZX=    -2.3092
   XY=     0.4951   YY=    29.5929   ZY=     2.9418
   XZ=    -1.8438   YZ=     3.7121   ZZ=    32.9186
   Eigenvalues:    26.8885    30.0420    35.4692
     27  H    Isotropic =    30.4554   Anisotropy =     7.2924
   XX=    30.6189   YX=    -1.8636   ZX=    -1.5469
   XY=    -2.6424   YY=    30.0729   ZY=    -4.4018
   XZ=    -0.4718   YZ=    -5.1517   ZZ=    30.6743
   Eigenvalues:    24.6635    31.3856    35.3170
     28  H    Isotropic =    30.7524   Anisotropy =    10.8484
   XX=    35.8274   YX=     3.3835   ZX=    -2.0558
   XY=     3.1819   YY=    27.8413   ZY=    -1.7645
   XZ=    -3.1505   YZ=    -1.6619   ZZ=    28.5884
   Eigenvalues:    26.2906    27.9818    37.9846
     29  H    Isotropic =    30.5462   Anisotropy =     7.0201
   XX=    29.8234   YX=    -2.0616   ZX=     1.1807
   XY=    -1.5293   YY=    34.5603   ZY=     1.6638
   XZ=     1.3967   YZ=     0.6503   ZZ=    27.2549
   Eigenvalues:    26.3274    30.0850    35.2263
     30  H    Isotropic =    30.7271   Anisotropy =    10.0400
   XX=    28.6291   YX=    -1.8295   ZX=     1.7004
   XY=    -0.9875   YY=    27.9213   ZY=    -4.2259
   XZ=     0.8759   YZ=    -3.0671   ZZ=    35.6308
   Eigenvalues:    26.1554    28.6054    37.4204
     31  H    Isotropic =    30.7140   Anisotropy =    10.6496
   XX=    37.3680   YX=    -0.4411   ZX=     1.6368
   XY=    -1.9296   YY=    27.3221   ZY=    -1.1421
   XZ=     1.6161   YZ=    -1.6048   ZZ=    27.4517
   Eigenvalues:    26.0049    28.3233    37.8137
 End of Minotr Frequency-dependent properties file   721 does not exist.
 End of Minotr Frequency-dependent properties file   722 does not exist.

 **********************************************************************

            Population analysis using the SCF density.

 **********************************************************************

 Orbital symmetries:
       Occupied  (A) (A) (A) (A) (A) (A) (A) (A) (A) (A) (A) (A)
                 (A) (A) (A) (A) (A) (A) (A) (A) (A) (A) (A) (A)
                 (A) (A) (A) (A) (A) (A) (A) (A) (A) (A) (A) (A)
                 (A) (A) (A) (A) (A) (A) (A) (A)
       Virtual   (A) (A) (A) (A) (A) (A) (A) (A) (A) (A) (A) (A)
                 (A) (A) (A) (A) (A) (A) (A) (A) (A) (A) (A) (A)
                 (A) (A) (A) (A) (A) (A) (A) (A) (A) (A) (A) (A)
                 (A) (A) (A) (A) (A) (A) (A) (A) (A) (A) (A) (A)
                 (A) (A) (A) (A) (A) (A) (A) (A) (A) (A) (A) (A)
                 (A) (A) (A) (A) (A) (A) (A) (A) (A) (A) (A) (A)
                 (A) (A) (A) (A) (A) (A) (A) (A) (A) (A) (A) (A)
                 (A) (A) (A) (A) (A) (A) (A) (A) (A) (A) (A) (A)
                 (A) (A) (A) (A) (A) (A) (A) (A) (A) (A) (A) (A)
                 (A) (A) (A) (A) (A) (A) (A) (A) (A) (A) (A) (A)
                 (A) (A) (A) (A) (A) (A) (A) (A) (A) (A) (A) (A)
                 (A) (A) (A) (A) (A) (A) (A) (A) (A) (A) (A) (A)
                 (A) (A) (A) (A) (A) (A) (A) (A) (A) (A) (A) (A)
                 (A) (A) (A) (A) (A) (A) (A) (A) (A) (A) (A) (A)
                 (A) (A) (A) (A) (A) (A) (A) (A) (A) (A) (A) (A)
                 (A) (A) (A) (A) (A) (A) (A) (A) (A) (A) (A) (A)
                 (A) (A) (A) (A) (A) (A) (A) (A) (A) (A) (A) (A)
                 (A) (A) (A) (A) (A) (A) (A) (A) (A) (A) (A) (A)
                 (A) (A) (A) (A) (A) (A) (A) (A) (A) (A) (A) (A)
                 (A) (A) (A) (A) (A) (A) (A) (A) (A) (A) (A) (A)
                 (A) (A) (A) (A) (A) (A) (A) (A) (A) (A) (A) (A)
                 (A) (A) (A) (A) (A) (A) (A) (A) (A) (A) (A) (A)
                 (A)
 The electronic state is 1-A.
 Alpha  occ. eigenvalues --  -19.24444 -10.29469 -10.25574 -10.24698 -10.24376
 Alpha  occ. eigenvalues --  -10.23692 -10.23644 -10.23616 -10.23508 -10.23493
 Alpha  occ. eigenvalues --  -10.23032  -1.04931  -0.85768  -0.82283  -0.76500
 Alpha  occ. eigenvalues --   -0.75659  -0.70410  -0.69269  -0.62971  -0.61653
 Alpha  occ. eigenvalues --   -0.57522  -0.56511  -0.51529  -0.49039  -0.47050
 Alpha  occ. eigenvalues --   -0.45915  -0.45540  -0.43513  -0.41993  -0.41626
 Alpha  occ. eigenvalues --   -0.40112  -0.39538  -0.39207  -0.38180  -0.37251
 Alpha  occ. eigenvalues --   -0.36535  -0.35353  -0.35155  -0.33523  -0.33090
 Alpha  occ. eigenvalues --   -0.32105  -0.31291  -0.29888  -0.27480
 Alpha virt. eigenvalues --    0.00396   0.01877   0.02090   0.02478   0.03626
 Alpha virt. eigenvalues --    0.04393   0.04629   0.04890   0.05880   0.06743
 Alpha virt. eigenvalues --    0.07008   0.07301   0.07542   0.08908   0.09382
 Alpha virt. eigenvalues --    0.09439   0.09852   0.10199   0.10919   0.11140
 Alpha virt. eigenvalues --    0.12110   0.12759   0.13564   0.13956   0.14944
 Alpha virt. eigenvalues --    0.15835   0.15861   0.16238   0.17149   0.18017
 Alpha virt. eigenvalues --    0.18333   0.18679   0.19396   0.19609   0.19857
 Alpha virt. eigenvalues --    0.20371   0.20869   0.21784   0.21991   0.22419
 Alpha virt. eigenvalues --    0.22959   0.23135   0.23759   0.24159   0.24720
 Alpha virt. eigenvalues --    0.25240   0.25561   0.25806   0.26418   0.27083
 Alpha virt. eigenvalues --    0.28163   0.28484   0.29153   0.29337   0.29812
 Alpha virt. eigenvalues --    0.30514   0.31139   0.32000   0.33042   0.33375
 Alpha virt. eigenvalues --    0.34589   0.34967   0.35670   0.36593   0.37348
 Alpha virt. eigenvalues --    0.38159   0.38956   0.39702   0.40852   0.41189
 Alpha virt. eigenvalues --    0.43131   0.44273   0.45796   0.50931   0.52697
 Alpha virt. eigenvalues --    0.62181   0.64598   0.65351   0.65809   0.67859
 Alpha virt. eigenvalues --    0.68365   0.69345   0.70723   0.71588   0.72490
 Alpha virt. eigenvalues --    0.73872   0.74770   0.75461   0.76474   0.77027
 Alpha virt. eigenvalues --    0.77405   0.78303   0.80475   0.83024   0.84400
 Alpha virt. eigenvalues --    0.86193   0.87824   0.88756   0.90352   0.91488
 Alpha virt. eigenvalues --    0.93607   0.96950   0.98638   0.99071   1.00572
 Alpha virt. eigenvalues --    1.01095   1.01538   1.02488   1.03459   1.04584
 Alpha virt. eigenvalues --    1.05330   1.07076   1.07787   1.10452   1.11169
 Alpha virt. eigenvalues --    1.12250   1.13751   1.14815   1.15377   1.16944
 Alpha virt. eigenvalues --    1.17767   1.18684   1.19769   1.20457   1.21748
 Alpha virt. eigenvalues --    1.22294   1.25894   1.27843   1.30297   1.32027
 Alpha virt. eigenvalues --    1.38124   1.39651   1.41029   1.42628   1.45274
 Alpha virt. eigenvalues --    1.48760   1.50228   1.52124   1.55654   1.57219
 Alpha virt. eigenvalues --    1.58781   1.60247   1.62943   1.64510   1.65225
 Alpha virt. eigenvalues --    1.69392   1.71723   1.76735   1.77036   1.80914
 Alpha virt. eigenvalues --    1.82173   1.82615   1.85498   1.86575   1.88294
 Alpha virt. eigenvalues --    1.88874   1.91330   1.91861   1.93881   1.94843
 Alpha virt. eigenvalues --    1.96633   1.97222   2.00316   2.02173   2.03383
 Alpha virt. eigenvalues --    2.05056   2.06085   2.06375   2.06967   2.08239
 Alpha virt. eigenvalues --    2.10267   2.10598   2.11895   2.14155   2.14567
 Alpha virt. eigenvalues --    2.14968   2.16380   2.17132   2.18351   2.20985
 Alpha virt. eigenvalues --    2.21682   2.22646   2.24009   2.25102   2.30333
 Alpha virt. eigenvalues --    2.31975   2.34606   2.35495   2.35930   2.38467
 Alpha virt. eigenvalues --    2.39322   2.39721   2.40235   2.43054   2.44539
 Alpha virt. eigenvalues --    2.46803   2.52644   2.53344   2.53922   2.58762
 Alpha virt. eigenvalues --    2.59610   2.61508   2.61783   2.63511   2.68388
 Alpha virt. eigenvalues --    2.68401   2.69340   2.71259   2.72449   2.73271
 Alpha virt. eigenvalues --    2.75261   2.76378   2.77397   2.78076   2.78354
 Alpha virt. eigenvalues --    2.78963   2.81356   2.82532   2.84693   2.85237
 Alpha virt. eigenvalues --    2.87909   2.88719   2.90883   2.91562   2.93055
 Alpha virt. eigenvalues --    2.93321   2.93873   2.95038   2.96906   2.99181
 Alpha virt. eigenvalues --    3.00731   3.01684   3.08893   3.12396   3.29268
 Alpha virt. eigenvalues --    3.29633   3.30552   3.36012   3.38294   3.39338
 Alpha virt. eigenvalues --    3.39907   3.42315   3.47718   3.48972   3.50147
 Alpha virt. eigenvalues --    3.51043   3.52664   3.53215   3.55019   3.56267
 Alpha virt. eigenvalues --    3.57016   3.59358   3.60993   3.64619   4.34311
 Alpha virt. eigenvalues --    4.42423   4.45099   4.53794   4.58169   4.60874
 Alpha virt. eigenvalues --    4.63470   4.75563   4.84975   4.89137   4.94993
          Condensed to atoms (all electrons):
              1          2          3          4          5          6
     1  C    6.762041   0.101567   0.045962  -0.197253  -0.028380  -0.143731
     2  C    0.101567   7.378889   0.090466  -1.789950  -0.058887  -0.385685
     3  C    0.045962   0.090466   6.076597  -0.460711   0.057066  -0.152847
     4  C   -0.197253  -1.789950  -0.460711   9.247253   0.064792   0.142817
     5  C   -0.028380  -0.058887   0.057066   0.064792   5.683308  -0.128506
     6  C   -0.143731  -0.385685  -0.152847   0.142817  -0.128506   6.317120
     7  C   -0.554918  -0.275017  -0.129281   0.163229   0.113752   0.239788
     8  O    0.010875   0.032258  -0.058985   0.029728   0.005539  -0.109721
     9  C    0.056204   0.972839   0.329919  -2.132325  -0.082132  -0.164173
    10  C   -0.008593  -0.118794   0.003014   0.201697  -0.025722   0.043320
    11  C   -0.038934  -0.150881  -0.108326   0.447013   0.047620  -0.024965
    12  H    0.319709  -0.018573  -0.008829   0.004632   0.003013  -0.024566
    13  H    0.007600   0.093857   0.003584   0.155695  -0.008990   0.115809
    14  H    0.032466   0.038740   0.286572  -0.051478   0.027128  -0.009312
    15  H   -0.024476  -0.029173   0.451995  -0.053913  -0.024926   0.003476
    16  H   -0.018555  -0.014166   0.006157   0.309520  -0.004501  -0.032029
    17  H   -0.090392  -0.005605  -0.063818   0.013465   0.462174  -0.002543
    18  H   -0.043736  -0.010786  -0.025967   0.030885   0.343791   0.041652
    19  H   -0.068489  -0.055031   0.008698   0.015804  -0.005151   0.402355
    20  H   -0.051306  -0.045965  -0.010156   0.055938   0.033450   0.357117
    21  H   -0.104168  -0.006199   0.000162   0.002993   0.007340   0.004410
    22  H   -0.136347  -0.002763  -0.011876   0.002564   0.026098   0.005449
    23  H   -0.134370  -0.015537   0.002054   0.002721  -0.002723   0.036596
    24  H   -0.007128   0.154882   0.007522  -0.179174  -0.000868   0.007323
    25  H    0.001302  -0.020731   0.005375  -0.021353  -0.008498   0.008782
    26  H    0.000195   0.003456   0.011763  -0.018211  -0.003194   0.003124
    27  H   -0.001973  -0.001158  -0.021576   0.004987   0.004295  -0.003391
    28  H   -0.000041   0.006066  -0.009291   0.048748   0.001075   0.001091
    29  H    0.000551  -0.001388  -0.007138   0.007766  -0.000149  -0.000922
    30  H   -0.000406  -0.006380   0.016816   0.006326  -0.002334  -0.002853
    31  H   -0.000357  -0.002764  -0.001545   0.038617   0.001145  -0.000040
              7          8          9         10         11         12
     1  C   -0.554918   0.010875   0.056204  -0.008593  -0.038934   0.319709
     2  C   -0.275017   0.032258   0.972839  -0.118794  -0.150881  -0.018573
     3  C   -0.129281  -0.058985   0.329919   0.003014  -0.108326  -0.008829
     4  C    0.163229   0.029728  -2.132325   0.201697   0.447013   0.004632
     5  C    0.113752   0.005539  -0.082132  -0.025722   0.047620   0.003013
     6  C    0.239788  -0.109721  -0.164173   0.043320  -0.024965  -0.024566
     7  C    5.824262   0.033284  -0.048309   0.003756   0.002860  -0.006589
     8  O    0.033284   8.375043   0.024754  -0.029989   0.029801   0.006153
     9  C   -0.048309   0.024754   8.016125  -0.141169  -0.621134   0.001244
    10  C    0.003756  -0.029989  -0.141169   5.474315  -0.136937   0.000549
    11  C    0.002860   0.029801  -0.621134  -0.136937   5.853094   0.000284
    12  H   -0.006589   0.006153   0.001244   0.000549   0.000284   0.546350
    13  H    0.011535  -0.035037  -0.102797   0.014187   0.005654  -0.000089
    14  H    0.001504  -0.001386   0.034053  -0.020599  -0.009410   0.000013
    15  H   -0.001083   0.007669  -0.026008   0.000993   0.009211   0.002957
    16  H    0.000600   0.012448  -0.016211  -0.006586   0.028518   0.000078
    17  H   -0.007998   0.000384  -0.004840   0.000565   0.002798   0.004998
    18  H   -0.007921   0.000416  -0.000360   0.001976  -0.001643  -0.004425
    19  H   -0.003298   0.009993   0.003452  -0.000109   0.000055   0.004926
    20  H    0.001213  -0.003779  -0.004706  -0.001301   0.000668  -0.003589
    21  H    0.444095   0.000101  -0.000129   0.000008   0.000054   0.004653
    22  H    0.477355  -0.000163  -0.000243  -0.000036   0.000015  -0.003690
    23  H    0.470704   0.000104  -0.000563   0.000080  -0.000030  -0.003715
    24  H   -0.003267   0.215029   0.063645  -0.013993  -0.002475  -0.000102
    25  H   -0.000066  -0.004196   0.299841   0.008787  -0.002096   0.000001
    26  H   -0.000122  -0.000381  -0.086993   0.447504  -0.005385   0.000001
    27  H   -0.000067   0.001972  -0.028888   0.394880   0.007407  -0.000004
    28  H    0.000027  -0.000038  -0.137714   0.450494  -0.002587   0.000000
    29  H    0.000059  -0.000094  -0.102024  -0.003360   0.456357   0.000000
    30  H   -0.000082   0.000114  -0.093493   0.002874   0.438948   0.000000
    31  H   -0.000008  -0.000022  -0.136838   0.004315   0.455764   0.000000
             13         14         15         16         17         18
     1  C    0.007600   0.032466  -0.024476  -0.018555  -0.090392  -0.043736
     2  C    0.093857   0.038740  -0.029173  -0.014166  -0.005605  -0.010786
     3  C    0.003584   0.286572   0.451995   0.006157  -0.063818  -0.025967
     4  C    0.155695  -0.051478  -0.053913   0.309520   0.013465   0.030885
     5  C   -0.008990   0.027128  -0.024926  -0.004501   0.462174   0.343791
     6  C    0.115809  -0.009312   0.003476  -0.032029  -0.002543   0.041652
     7  C    0.011535   0.001504  -0.001083   0.000600  -0.007998  -0.007921
     8  O   -0.035037  -0.001386   0.007669   0.012448   0.000384   0.000416
     9  C   -0.102797   0.034053  -0.026008  -0.016211  -0.004840  -0.000360
    10  C    0.014187  -0.020599   0.000993  -0.006586   0.000565   0.001976
    11  C    0.005654  -0.009410   0.009211   0.028518   0.002798  -0.001643
    12  H   -0.000089   0.000013   0.002957   0.000078   0.004998  -0.004425
    13  H    0.622376  -0.000128  -0.000074  -0.003167  -0.000067   0.000013
    14  H   -0.000128   0.556804  -0.030687  -0.004798  -0.004015  -0.002997
    15  H   -0.000074  -0.030687   0.530621   0.005079   0.004599  -0.004052
    16  H   -0.003167  -0.004798   0.005079   0.584128   0.003308   0.000011
    17  H   -0.000067  -0.004015   0.004599   0.003308   0.553775  -0.030364
    18  H    0.000013  -0.002997  -0.004052   0.000011  -0.030364   0.555102
    19  H   -0.004087  -0.000022   0.000072   0.001173   0.003216  -0.000029
    20  H   -0.004573   0.000009  -0.000025   0.000017  -0.000023  -0.000129
    21  H   -0.000003   0.000000   0.000002   0.000002   0.003370  -0.000188
    22  H   -0.000002   0.000002   0.000001   0.000001  -0.000016   0.000013
    23  H    0.000002  -0.000005   0.000001   0.000000  -0.000226   0.002822
    24  H   -0.009791  -0.000002   0.000121  -0.000036   0.000002   0.000000
    25  H    0.004818  -0.000003  -0.000053  -0.001560  -0.000001   0.000002
    26  H   -0.000003   0.000027  -0.001772  -0.000026  -0.000002   0.000004
    27  H    0.000134   0.000295  -0.000155  -0.000029  -0.000001   0.000000
    28  H    0.000008  -0.000015   0.000138  -0.000079   0.000000   0.000000
    29  H    0.000001   0.000743   0.000029  -0.000784   0.000006   0.000004
    30  H    0.000036   0.000002  -0.000004   0.003084  -0.000001   0.000000
    31  H   -0.000007  -0.000064   0.000001   0.000303   0.000000   0.000000
             19         20         21         22         23         24
     1  C   -0.068489  -0.051306  -0.104168  -0.136347  -0.134370  -0.007128
     2  C   -0.055031  -0.045965  -0.006199  -0.002763  -0.015537   0.154882
     3  C    0.008698  -0.010156   0.000162  -0.011876   0.002054   0.007522
     4  C    0.015804   0.055938   0.002993   0.002564   0.002721  -0.179174
     5  C   -0.005151   0.033450   0.007340   0.026098  -0.002723  -0.000868
     6  C    0.402355   0.357117   0.004410   0.005449   0.036596   0.007323
     7  C   -0.003298   0.001213   0.444095   0.477355   0.470704  -0.003267
     8  O    0.009993  -0.003779   0.000101  -0.000163   0.000104   0.215029
     9  C    0.003452  -0.004706  -0.000129  -0.000243  -0.000563   0.063645
    10  C   -0.000109  -0.001301   0.000008  -0.000036   0.000080  -0.013993
    11  C    0.000055   0.000668   0.000054   0.000015  -0.000030  -0.002475
    12  H    0.004926  -0.003589   0.004653  -0.003690  -0.003715  -0.000102
    13  H   -0.004087  -0.004573  -0.000003  -0.000002   0.000002  -0.009791
    14  H   -0.000022   0.000009   0.000000   0.000002  -0.000005  -0.000002
    15  H    0.000072  -0.000025   0.000002   0.000001   0.000001   0.000121
    16  H    0.001173   0.000017   0.000002   0.000001   0.000000  -0.000036
    17  H    0.003216  -0.000023   0.003370  -0.000016  -0.000226   0.000002
    18  H   -0.000029  -0.000129  -0.000188   0.000013   0.002822   0.000000
    19  H    0.548233  -0.027092   0.003403  -0.000291  -0.000006  -0.000257
    20  H   -0.027092   0.532454  -0.000084   0.002586  -0.000001  -0.000043
    21  H    0.003403  -0.000084   0.538043  -0.028543  -0.028359   0.000000
    22  H   -0.000291   0.002586  -0.028543   0.531806  -0.025466   0.000000
    23  H   -0.000006  -0.000001  -0.028359  -0.025466   0.533912   0.000000
    24  H   -0.000257  -0.000043   0.000000   0.000000   0.000000   0.402990
    25  H    0.000003  -0.000012   0.000000   0.000000   0.000000  -0.000164
    26  H    0.000000   0.000000   0.000000   0.000000   0.000000   0.000021
    27  H   -0.000001   0.000003   0.000000   0.000000   0.000000   0.003593
    28  H    0.000000   0.000000   0.000000   0.000000   0.000000   0.000039
    29  H    0.000001   0.000000   0.000000   0.000000   0.000000   0.000001
    30  H    0.000000   0.000000   0.000000   0.000000   0.000000  -0.000005
    31  H    0.000000   0.000000   0.000000   0.000000   0.000000   0.000002
             25         26         27         28         29         30
     1  C    0.001302   0.000195  -0.001973  -0.000041   0.000551  -0.000406
     2  C   -0.020731   0.003456  -0.001158   0.006066  -0.001388  -0.006380
     3  C    0.005375   0.011763  -0.021576  -0.009291  -0.007138   0.016816
     4  C   -0.021353  -0.018211   0.004987   0.048748   0.007766   0.006326
     5  C   -0.008498  -0.003194   0.004295   0.001075  -0.000149  -0.002334
     6  C    0.008782   0.003124  -0.003391   0.001091  -0.000922  -0.002853
     7  C   -0.000066  -0.000122  -0.000067   0.000027   0.000059  -0.000082
     8  O   -0.004196  -0.000381   0.001972  -0.000038  -0.000094   0.000114
     9  C    0.299841  -0.086993  -0.028888  -0.137714  -0.102024  -0.093493
    10  C    0.008787   0.447504   0.394880   0.450494  -0.003360   0.002874
    11  C   -0.002096  -0.005385   0.007407  -0.002587   0.456357   0.438948
    12  H    0.000001   0.000001  -0.000004   0.000000   0.000000   0.000000
    13  H    0.004818  -0.000003   0.000134   0.000008   0.000001   0.000036
    14  H   -0.000003   0.000027   0.000295  -0.000015   0.000743   0.000002
    15  H   -0.000053  -0.001772  -0.000155   0.000138   0.000029  -0.000004
    16  H   -0.001560  -0.000026  -0.000029  -0.000079  -0.000784   0.003084
    17  H   -0.000001  -0.000002  -0.000001   0.000000   0.000006  -0.000001
    18  H    0.000002   0.000004   0.000000   0.000000   0.000004   0.000000
    19  H    0.000003   0.000000  -0.000001   0.000000   0.000001   0.000000
    20  H   -0.000012   0.000000   0.000003   0.000000   0.000000   0.000000
    21  H    0.000000   0.000000   0.000000   0.000000   0.000000   0.000000
    22  H    0.000000   0.000000   0.000000   0.000000   0.000000   0.000000
    23  H    0.000000   0.000000   0.000000   0.000000   0.000000   0.000000
    24  H   -0.000164   0.000021   0.003593   0.000039   0.000001  -0.000005
    25  H    0.588764   0.004863  -0.002888  -0.004319   0.005062  -0.004014
    26  H    0.004863   0.523923  -0.026648  -0.027541   0.003271   0.000046
    27  H   -0.002888  -0.026648   0.545141  -0.026083  -0.000016  -0.000143
    28  H   -0.004319  -0.027541  -0.026083   0.531739  -0.000079   0.000046
    29  H    0.005062   0.003271  -0.000016  -0.000079   0.531953  -0.027581
    30  H   -0.004014   0.000046  -0.000143   0.000046  -0.027581   0.530937
    31  H   -0.003636  -0.000253   0.000084   0.002648  -0.028188  -0.025332
             31
     1  C   -0.000357
     2  C   -0.002764
     3  C   -0.001545
     4  C    0.038617
     5  C    0.001145
     6  C   -0.000040
     7  C   -0.000008
     8  O   -0.000022
     9  C   -0.136838
    10  C    0.004315
    11  C    0.455764
    12  H    0.000000
    13  H   -0.000007
    14  H   -0.000064
    15  H    0.000001
    16  H    0.000303
    17  H    0.000000
    18  H    0.000000
    19  H    0.000000
    20  H    0.000000
    21  H    0.000000
    22  H    0.000000
    23  H    0.000000
    24  H    0.000002
    25  H   -0.003636
    26  H   -0.000253
    27  H    0.000084
    28  H    0.002648
    29  H   -0.028188
    30  H   -0.025332
    31  H    0.532993
 Mulliken atomic charges:
              1
     1  C    0.315079
     2  C    0.142410
     3  C   -0.333373
     4  C   -0.092823
     5  C   -0.496626
     6  C   -0.544950
     7  C   -0.749997
     8  O   -0.551874
     9  C    0.128972
    10  C   -0.546124
    11  C   -0.681318
    12  H    0.174611
    13  H    0.133504
    14  H    0.156566
    15  H    0.179438
    16  H    0.148102
    17  H    0.157253
    18  H    0.155905
    19  H    0.162480
    20  H    0.169329
    21  H    0.159033
    22  H    0.163545
    23  H    0.162005
    24  H    0.362138
    25  H    0.145989
    26  H    0.172333
    27  H    0.150229
    28  H    0.165668
    29  H    0.165917
    30  H    0.163398
    31  H    0.163183
 Sum of Mulliken atomic charges =   0.00000
 Mulliken charges with hydrogens summed into heavy atoms:
              1
     1  C    0.489690
     2  C    0.275914
     3  C    0.002630
     4  C    0.055279
     5  C   -0.183468
     6  C   -0.213141
     7  C   -0.265414
     8  O   -0.189736
     9  C    0.274961
    10  C   -0.057895
    11  C   -0.188820
 Sum of Mulliken charges with hydrogens summed into heavy atoms =   0.00000
 Electronic spatial extent (au):  <R**2>=           2183.8449
 Charge=              0.0000 electrons
 Dipole moment (field-independent basis, Debye):
    X=              1.3925    Y=             -0.4068    Z=              0.9776  Tot=              1.7493
 Quadrupole moment (field-independent basis, Debye-Ang):
   XX=            -71.0945   YY=            -72.7883   ZZ=            -72.0373
   XY=              3.3677   XZ=             -0.5147   YZ=              1.7411
 Traceless Quadrupole moment (field-independent basis, Debye-Ang):
   XX=              0.8789   YY=             -0.8150   ZZ=             -0.0639
   XY=              3.3677   XZ=             -0.5147   YZ=              1.7411
 Octapole moment (field-independent basis, Debye-Ang**2):
  XXX=              6.6186  YYY=              9.5152  ZZZ=             -0.2269  XYY=              9.0733
  XXY=              9.1516  XXZ=             -2.4821  XZZ=             -0.9977  YZZ=              1.0401
  YYZ=              0.6466  XYZ=             -1.8507
 Hexadecapole moment (field-independent basis, Debye-Ang**3):
 XXXX=          -2125.4300 YYYY=           -572.0002 ZZZZ=           -353.2611 XXXY=              1.5237
 XXXZ=              6.5212 YYYX=             22.1138 YYYZ=              1.2657 ZZZX=              4.5602
 ZZZY=             -3.3922 XXYY=           -442.3155 XXZZ=           -415.2046 YYZZ=           -153.3250
 XXYZ=              2.5136 YYXZ=             -7.3697 ZZXY=              5.1226
 N-N= 6.917276447582D+02 E-N=-2.468859852765D+03  KE= 4.637023618173D+02
 1\1\GINC-COMPUTE-10-2\SP\RmPW1PW91\6-31+G(d,p)\C10H20O1\ASAROTTI.IQUIR
 \19-Sep-2024\0\\# mPW1PW91/6-31+G** nmr scrf=(pcm,solvent=benzene)\\co
 mment\\0,1\C,0,2.212901,-0.111987,0.264586\C,0,0.135801,1.097684,-0.61
 8412\C,0,-0.113182,-1.063851,0.684279\C,0,-0.70387,-0.189538,-0.437998
 \C,0,1.367575,-1.386525,0.43179\C,0,1.615189,0.770172,-0.845644\C,0,3.
 685375,-0.435725,-0.010793\O,0,0.080059,1.972917,0.518701\C,0,-2.23272
 1,0.082454,-0.30764\C,0,-2.714257,0.386035,1.123801\C,0,-3.054025,-1.0
 79146,-0.8925\H,0,2.153791,0.455602,1.203818\H,0,-0.244462,1.63522,-1.
 503439\H,0,-0.687274,-1.994419,0.781955\H,0,-0.201181,-0.534392,1.6404
 59\H,0,-0.571006,-0.739382,-1.384107\H,0,1.460988,-2.001858,-0.477204\
 H,0,1.764583,-1.992276,1.257608\H,0,1.711892,0.252629,-1.811612\H,0,2.
 172634,1.711411,-0.927153\H,0,3.796753,-1.002613,-0.944819\H,0,4.28484
 4,0.478043,-0.103252\H,0,4.117411,-1.039199,0.796828\H,0,-0.802039,2.3
 71789,0.539739\H,0,-2.450893,0.96847,-0.927144\H,0,-2.650629,-0.50503,
 1.758786\H,0,-2.124068,1.168406,1.610505\H,0,-3.762911,0.706062,1.1130
 44\H,0,-2.859921,-2.013673,-0.351218\H,0,-2.812029,-1.248647,-1.948314
 \H,0,-4.129666,-0.876919,-0.822898\\Version=AM64L-G09RevC.01\State=1-A
 \HF=-468.2819854\RMSD=5.950e-09\Dipole=-0.5478387,-0.1600493,-0.384625
 6\Quadrupole=0.6534216,-0.6059075,-0.0475141,-2.5038278,-0.3826902,-1.
 2944363\PG=C01 [X(C10H20O1)]\\@


 THE MOST INCOMPREHENSIBLE THING ABOUT THE WORLD
 IS THAT IT IS COMPREHENSIBLE. -- A. EINSTEIN
 Job cpu time:  0 days  0 hours  9 minutes 19.4 seconds.
 File lengths (MBytes):  RWF=    121 Int=      0 D2E=      0 Chk=      7 Scr=      1
 Normal termination of Gaussian 09 at Thu Sep 19 09:49:24 2024.
