 Entering Gaussian System, Link 0=g09
 Input=/home/asarotti.iquir/SCF2/03_Mentol08_OptB_NMR_benzene.gjc
 Output=/home/asarotti.iquir/SCF2/03_Mentol08_OptB_NMR_benzene.log
 Initial command:
 /opt/ohpc/pub/apps/software/Gaussian/09/EM64T.SSE4.2-enabled/g09/l1.exe /local/asarotti.iquir/Gau-533877.inp -scrdir=/local/asarotti.iquir/
 Entering Link 1 = /opt/ohpc/pub/apps/software/Gaussian/09/EM64T.SSE4.2-enabled/g09/l1.exe PID=    533878.
  
 Copyright (c) 1988,1990,1992,1993,1995,1998,2003,2009,2011,
            Gaussian, Inc.  All Rights Reserved.
  
 This is part of the Gaussian(R) 09 program.  It is based on
 the Gaussian(R) 03 system (copyright 2003, Gaussian, Inc.),
 the Gaussian(R) 98 system (copyright 1998, Gaussian, Inc.),
 the Gaussian(R) 94 system (copyright 1995, Gaussian, Inc.),
 the Gaussian 92(TM) system (copyright 1992, Gaussian, Inc.),
 the Gaussian 90(TM) system (copyright 1990, Gaussian, Inc.),
 the Gaussian 88(TM) system (copyright 1988, Gaussian, Inc.),
 the Gaussian 86(TM) system (copyright 1986, Carnegie Mellon
 University), and the Gaussian 82(TM) system (copyright 1983,
 Carnegie Mellon University). Gaussian is a federally registered
 trademark of Gaussian, Inc.
  
 This software contains proprietary and confidential information,
 including trade secrets, belonging to Gaussian, Inc.
  
 This software is provided under written license and may be
 used, copied, transmitted, or stored only in accord with that
 written license.
  
 The following legend is applicable only to US Government
 contracts under FAR:
  
                    RESTRICTED RIGHTS LEGEND
  
 Use, reproduction and disclosure by the US Government is
 subject to restrictions as set forth in subparagraphs (a)
 and (c) of the Commercial Computer Software - Restricted
 Rights clause in FAR 52.227-19.
  
 Gaussian, Inc.
 340 Quinnipiac St., Bldg. 40, Wallingford CT 06492
  
  
 ---------------------------------------------------------------
 Warning -- This program may not be used in any manner that
 competes with the business of Gaussian, Inc. or will provide
 assistance to any competitor of Gaussian, Inc.  The licensee
 of this program is prohibited from giving any competitor of
 Gaussian, Inc. access to this program.  By using this program,
 the user acknowledges that Gaussian, Inc. is engaged in the
 business of creating and licensing software in the field of
 computational chemistry and represents and warrants to the
 licensee that it is not a competitor of Gaussian, Inc. and that
 it will not use this program in any manner prohibited above.
 ---------------------------------------------------------------
  

 Cite this work as:
 Gaussian 09, Revision C.01,
 M. J. Frisch, G. W. Trucks, H. B. Schlegel, G. E. Scuseria, 
 M. A. Robb, J. R. Cheeseman, G. Scalmani, V. Barone, B. Mennucci, 
 G. A. Petersson, H. Nakatsuji, M. Caricato, X. Li, H. P. Hratchian, 
 A. F. Izmaylov, J. Bloino, G. Zheng, J. L. Sonnenberg, M. Hada, 
 M. Ehara, K. Toyota, R. Fukuda, J. Hasegawa, M. Ishida, T. Nakajima, 
 Y. Honda, O. Kitao, H. Nakai, T. Vreven, J. A. Montgomery, Jr., 
 J. E. Peralta, F. Ogliaro, M. Bearpark, J. J. Heyd, E. Brothers, 
 K. N. Kudin, V. N. Staroverov, T. Keith, R. Kobayashi, J. Normand, 
 K. Raghavachari, A. Rendell, J. C. Burant, S. S. Iyengar, J. Tomasi, 
 M. Cossi, N. Rega, J. M. Millam, M. Klene, J. E. Knox, J. B. Cross, 
 V. Bakken, C. Adamo, J. Jaramillo, R. Gomperts, R. E. Stratmann, 
 O. Yazyev, A. J. Austin, R. Cammi, C. Pomelli, J. W. Ochterski, 
 R. L. Martin, K. Morokuma, V. G. Zakrzewski, G. A. Voth, 
 P. Salvador, J. J. Dannenberg, S. Dapprich, A. D. Daniels, 
 O. Farkas, J. B. Foresman, J. V. Ortiz, J. Cioslowski, 
 and D. J. Fox, Gaussian, Inc., Wallingford CT, 2010.
 
 ******************************************
 Gaussian 09:  EM64L-G09RevC.01 23-Sep-2011
                19-Sep-2024 
 ******************************************
 %nprocshared=4
 Will use up to    4 processors via shared memory.
 %mem=100mw
 --------------------------------------------------
 # mPW1PW91/6-31+G** nmr scrf=(pcm,solvent=benzene)
 --------------------------------------------------
 1/38=1/1;
 2/12=2,17=6,18=5,40=1/2;
 3/5=1,6=6,7=111,11=2,16=1,25=1,30=1,70=2201,72=12,74=-7/1,2,8,3;
 4//1;
 5/5=2,38=5,53=12/2;
 8/6=1,10=90,11=11/1;
 10/13=100,45=16/2;
 6/7=2,8=2,9=2,10=2,28=1/1;
 99/9=1/99;
 -------
 comment
 -------
 Charge =  0 Multiplicity = 1
 Symbolic Z-Matrix:
 6                    -2.24098  -0.01703   0.1933 
 6                     0.0768   -1.02568  -0.18404 
 6                    -0.13681   1.41822   0.40318 
 6                     0.66626   0.38809  -0.41348 
 6                    -1.62817   1.38577   0.03224 
 6                    -1.40537  -1.05593  -0.57702 
 6                    -3.71053  -0.04807  -0.24069 
 8                     0.12187  -1.43903   1.1883 
 6                     2.20594   0.54022  -0.24821 
 6                     2.98325  -0.21545  -1.33876 
 6                     2.77612   0.19452   1.14138 
 1                    -2.18959  -0.28459   1.25726 
 1                     0.61969  -1.7564   -0.80518 
 1                     0.27027   2.42399   0.23257 
 1                    -0.02845   1.2064    1.47396 
 1                     0.4747    0.60909  -1.47663 
 1                    -1.74812   1.71148  -1.01336 
 1                    -2.18449   2.10732   0.64581 
 1                    -1.48778  -0.8702   -1.65798 
 1                    -1.79592  -2.06445  -0.39287 
 1                    -3.81496   0.20861  -1.30345 
 1                    -4.14871  -1.04285  -0.09464 
 1                    -4.30984   0.6689    0.33377 
 1                     1.04924  -1.48369   1.45893 
 1                     2.40055   1.61227  -0.4033 
 1                     2.85953  -1.30172  -1.2476 
 1                     2.64881   0.07422  -2.34203 
 1                     4.05716  -0.00427  -1.27072 
 1                     2.85918  -0.89148   1.29395 
 1                     2.17984   0.61425   1.95788 
 1                     3.79485   0.58741   1.23996 
 
                          Input orientation:                          
 ---------------------------------------------------------------------
 Center     Atomic      Atomic             Coordinates (Angstroms)
 Number     Number       Type             X           Y           Z
 ---------------------------------------------------------------------
      1          6           0       -2.240980   -0.017034    0.193297
      2          6           0        0.076803   -1.025676   -0.184042
      3          6           0       -0.136813    1.418222    0.403179
      4          6           0        0.666260    0.388087   -0.413483
      5          6           0       -1.628172    1.385765    0.032239
      6          6           0       -1.405365   -1.055928   -0.577020
      7          6           0       -3.710527   -0.048072   -0.240691
      8          8           0        0.121873   -1.439025    1.188297
      9          6           0        2.205942    0.540218   -0.248213
     10          6           0        2.983245   -0.215448   -1.338759
     11          6           0        2.776115    0.194519    1.141377
     12          1           0       -2.189589   -0.284592    1.257255
     13          1           0        0.619693   -1.756402   -0.805180
     14          1           0        0.270271    2.423991    0.232571
     15          1           0       -0.028448    1.206402    1.473963
     16          1           0        0.474704    0.609085   -1.476634
     17          1           0       -1.748115    1.711479   -1.013364
     18          1           0       -2.184489    2.107318    0.645808
     19          1           0       -1.487776   -0.870195   -1.657982
     20          1           0       -1.795922   -2.064448   -0.392873
     21          1           0       -3.814958    0.208607   -1.303448
     22          1           0       -4.148714   -1.042849   -0.094643
     23          1           0       -4.309839    0.668895    0.333771
     24          1           0        1.049238   -1.483685    1.458930
     25          1           0        2.400545    1.612268   -0.403301
     26          1           0        2.859534   -1.301721   -1.247595
     27          1           0        2.648808    0.074220   -2.342026
     28          1           0        4.057157   -0.004274   -1.270719
     29          1           0        2.859178   -0.891477    1.293947
     30          1           0        2.179840    0.614246    1.957877
     31          1           0        3.794853    0.587413    1.239959
 ---------------------------------------------------------------------
                    Distance matrix (angstroms):
                    1          2          3          4          5
     1  C    0.000000
     2  C    2.555751   0.000000
     3  C    2.555686   2.522518   0.000000
     4  C    2.997390   1.548815   1.540468   0.000000
     5  C    1.539259   2.961210   1.537141   2.541348   0.000000
     6  C    1.539786   1.533678   2.948124   2.530524   2.526401
     7  C    1.532605   3.911878   3.916123   4.401858   2.542947
     8  O    2.931750   1.433947   2.974422   2.490059   3.518319
     9  C    4.503396   2.643743   2.585286   1.555982   3.936246
    10  C    5.447852   3.230673   3.929120   2.566868   5.070373
    11  C    5.110269   3.245288   3.244616   2.628031   4.695423
    12  H    1.098287   2.786230   2.800520   3.376350   2.146147
    13  H    3.493681   1.102045   3.480039   2.180465   3.953148
    14  H    3.502360   3.480115   1.098360   2.172349   2.173047
    15  H    2.834113   2.782486   1.096900   2.171339   2.160985
    16  H    3.248944   2.121689   2.135966   1.102644   2.702224
    17  H    2.164880   3.392657   2.165384   2.817877   1.101708
    18  H    2.172747   3.951929   2.174097   3.493511   1.098451
    19  H    2.173116   2.155129   3.363085   2.787817   2.822395
    20  H    2.175678   2.151687   3.938951   3.475298   3.480349
    21  H    2.183705   4.233477   4.231370   4.572260   2.819893
    22  H    2.185098   4.226497   4.732869   5.033211   3.502484
    23  H    2.184127   4.730997   4.240337   5.039723   2.792161
    24  H    3.818171   1.963354   3.307929   2.675095   4.175849
    25  H    4.955230   3.522300   2.669504   2.122844   4.058517
    26  H    5.453607   2.991812   4.370497   2.891651   5.385170
    27  H    5.508740   3.532970   4.135478   2.783575   5.064567
    28  H    6.466068   4.250570   4.734429   3.519515   5.996072
    29  H    5.290340   3.153422   3.886404   3.059655   5.187875
    30  H    4.801657   3.420515   2.903506   2.822308   4.336390
    31  H    6.155659   4.295781   4.104685   3.544248   5.612945
                    6          7          8          9         10
     6  C    0.000000
     7  C    2.538240   0.000000
     8  O    2.365494   4.320191   0.000000
     9  C    3.961986   5.945649   3.213146   0.000000
    10  C    4.532830   6.785304   4.008816   1.537700   0.000000
    11  C    4.690552   6.636677   3.116997   1.541287   2.522311
    12  H    2.138815   2.147798   2.584633   4.718839   5.788116
    13  H    2.154897   4.689120   2.079063   2.846201   2.871519
    14  H    3.946268   4.709758   3.982251   2.743461   4.098286
    15  H    3.349712   4.251053   2.665049   2.898653   4.359284
    16  H    2.667627   4.413113   3.379512   2.123899   2.644171
    17  H    2.822484   2.746653   4.274324   4.194267   5.119052
    18  H    3.479722   2.785746   4.264991   4.746679   6.003268
    19  H    1.099894   2.761380   3.319012   4.197650   4.529970
    20  H    1.097068   2.784716   2.563043   4.777042   5.210944
    21  H    2.816538   1.098291   4.941874   6.121660   6.811507
    22  H    2.785466   1.096777   4.476696   6.550675   7.286786
    23  H    3.498646   1.096915   4.981326   6.542986   7.534487
    24  H    3.217630   5.254052   0.967079   2.889374   3.629858
    25  H    4.651279   6.334696   4.127459   1.100552   2.134284
    26  H    4.324286   6.763963   3.667044   2.195151   1.097089
    27  H    4.563858   6.698635   4.597662   2.190282   1.096495
    28  H    5.605920   7.835802   4.857132   2.183801   1.096591
    29  H    4.659816   6.799079   2.793530   2.203344   2.720946
    30  H    4.697753   6.322087   3.007225   2.207486   3.493088
    31  H    5.748413   7.676386   4.195224   2.177503   2.820121
                   11         12         13         14         15
    11  C    0.000000
    12  H    4.990109   0.000000
    13  H    3.499333   3.783111   0.000000
    14  H    3.475015   3.799646   4.321424   0.000000
    15  H    3.000016   2.634493   3.793783   1.764316   0.000000
    16  H    3.510319   3.920620   2.463209   2.501411   3.052208
    17  H    5.235717   3.055308   4.204290   2.476673   3.065804
    18  H    5.339661   2.468831   4.989703   2.509361   2.479113
    19  H    5.210642   3.055173   2.440094   4.185282   4.031250
    20  H    5.325446   2.458818   2.469835   4.980604   4.160228
    21  H    7.029908   3.072828   4.876029   4.894525   4.800757
    22  H    7.142274   2.498150   4.873574   5.626142   4.949368
    23  H    7.147587   2.501484   5.610665   4.905916   4.463100
    24  H    2.428850   3.459552   2.320577   4.169014   2.897965
    25  H    2.130046   5.236874   3.831563   2.366705   3.096588
    26  H    2.820085   5.727344   2.327951   4.772432   4.694465
    27  H    3.487804   6.040998   3.135344   4.219883   4.797010
    28  H    2.738393   6.744707   3.886237   4.743085   5.068647
    29  H    1.099802   5.085244   3.189000   4.338351   3.573778
    30  H    1.094709   4.515605   3.960873   3.146158   2.336955
    31  H    1.096317   6.047664   4.444964   4.100064   3.880146
                   16         17         18         19         20
    16  H    0.000000
    17  H    2.524048   0.000000
    18  H    3.717630   1.760671   0.000000
    19  H    2.464241   2.673640   3.828634   0.000000
    20  H    3.671248   3.826868   4.316651   1.766832   0.000000
    21  H    4.311795   2.571889   3.172244   2.589456   3.173710
    22  H    5.100469   3.767393   3.785499   3.091024   2.582293
    23  H    5.115955   3.076391   2.585254   3.781523   3.784039
    24  H    3.650659   4.913908   4.900353   4.065458   3.444038
    25  H    2.422248   4.194449   4.729507   4.780783   5.579309
    26  H    3.064482   5.510414   6.375633   4.387908   4.794327
    27  H    2.400357   4.876360   6.035014   4.297809   5.303652
    28  H    3.640409   6.058979   6.862218   5.625484   6.266854
    29  H    3.951395   5.772886   5.903510   5.254555   5.088338
    30  H    3.834499   5.045892   4.795639   5.359982   5.339299
    31  H    4.289958   6.088143   6.198037   6.199101   6.399631
                   21         22         23         24         25
    21  H    0.000000
    22  H    1.771650   0.000000
    23  H    1.771231   1.771882   0.000000
    24  H    5.844227   5.443035   5.883816   0.000000
    25  H    6.435294   7.073734   6.816339   3.857313   0.000000
    26  H    6.843468   7.107169   7.601576   3.261221   3.068360
    27  H    6.548051   7.246025   7.479057   4.408283   2.487143
    28  H    7.875061   8.354526   8.546003   4.322871   2.471838
    29  H    7.245739   7.145743   7.399426   1.911495   3.059368
    30  H    6.836548   6.856340   6.690040   2.434856   2.572921
    31  H    8.032536   8.218222   8.155602   3.446128   2.386363
                   26         27         28         29         30
    26  H    0.000000
    27  H    1.770706   0.000000
    28  H    1.765844   1.771244   0.000000
    29  H    2.574439   3.767907   2.966445   0.000000
    30  H    3.795782   4.358982   3.785594   1.780310   0.000000
    31  H    3.260609   3.795708   2.592759   1.750862   1.767595
                   31
    31  H    0.000000
 Stoichiometry    C10H20O
 Framework group  C1[X(C10H20O)]
 Deg. of freedom    87
 Full point group                 C1      NOp   1
 Largest Abelian subgroup         C1      NOp   1
 Largest concise Abelian subgroup C1      NOp   1
                         Standard orientation:                         
 ---------------------------------------------------------------------
 Center     Atomic      Atomic             Coordinates (Angstroms)
 Number     Number       Type             X           Y           Z
 ---------------------------------------------------------------------
      1          6           0        2.240980   -0.017034   -0.193297
      2          6           0       -0.076803   -1.025676    0.184042
      3          6           0        0.136813    1.418222   -0.403179
      4          6           0       -0.666260    0.388087    0.413483
      5          6           0        1.628172    1.385765   -0.032239
      6          6           0        1.405365   -1.055928    0.577020
      7          6           0        3.710527   -0.048072    0.240691
      8          8           0       -0.121873   -1.439025   -1.188297
      9          6           0       -2.205942    0.540218    0.248213
     10          6           0       -2.983245   -0.215448    1.338759
     11          6           0       -2.776115    0.194519   -1.141377
     12          1           0        2.189589   -0.284592   -1.257255
     13          1           0       -0.619693   -1.756402    0.805180
     14          1           0       -0.270271    2.423991   -0.232571
     15          1           0        0.028448    1.206402   -1.473963
     16          1           0       -0.474704    0.609085    1.476634
     17          1           0        1.748115    1.711479    1.013364
     18          1           0        2.184489    2.107318   -0.645808
     19          1           0        1.487776   -0.870195    1.657982
     20          1           0        1.795922   -2.064448    0.392873
     21          1           0        3.814958    0.208607    1.303448
     22          1           0        4.148714   -1.042849    0.094643
     23          1           0        4.309839    0.668895   -0.333771
     24          1           0       -1.049238   -1.483685   -1.458930
     25          1           0       -2.400545    1.612268    0.403301
     26          1           0       -2.859534   -1.301721    1.247595
     27          1           0       -2.648808    0.074220    2.342026
     28          1           0       -4.057157   -0.004274    1.270719
     29          1           0       -2.859178   -0.891477   -1.293947
     30          1           0       -2.179840    0.614246   -1.957877
     31          1           0       -3.794853    0.587413   -1.239959
 ---------------------------------------------------------------------
 Rotational constants (GHZ):      2.0480344      0.6469118      0.6114258
 Standard basis: 6-31+G(d,p) (6D, 7F)
 There are   309 symmetry adapted basis functions of A   symmetry.
 Integral buffers will be    131072 words long.
 Raffenetti 2 integral format.
 Two-electron integral symmetry is turned on.
   309 basis functions,   492 primitive gaussians,   309 cartesian basis functions
    44 alpha electrons       44 beta electrons
       nuclear repulsion energy       693.5194867728 Hartrees.
 NAtoms=   31 NActive=   31 NUniq=   31 SFac= 1.00D+00 NAtFMM=   60 NAOKFM=F Big=F
 ------------------------------------------------------------------------------
 Polarizable Continuum Model (PCM)
 =================================
 Model                : PCM.
 Atomic radii         : UFF (Universal Force Field).
 Polarization charges : Total charges.
 Charge compensation  : None.
 Solution method      : Matrix inversion.
 Cavity type          : Scaled VdW (van der Waals Surface) (Alpha=1.100).
 Cavity algorithm     : GePol (No added spheres)
                        Default sphere list used, NSphG=   31.
                        Lebedev-Laikov grids with approx.  5.0 points / Ang**2.
                        Smoothing algorithm: Karplus/York (Gamma=1.0000).
                        Polarization charges: spherical gaussians, with
                                              point-specific exponents (IZeta= 3).
                        Self-potential: point-specific (ISelfS= 7).
                        Self-field    : sphere-specific E.n sum rule (ISelfD= 2).
 Solvent              : Benzene, Eps=   2.270600 Eps(inf)=   2.253301
 ------------------------------------------------------------------------------
 One-electron integrals computed using PRISM.
 NBasis=   309 RedAO= T  NBF=   309
 NBsUse=   309 1.00D-06 NBFU=   309
 Harris functional with IExCor=  908 diagonalized for initial guess.
 ExpMin= 4.38D-02 ExpMax= 5.48D+03 ExpMxC= 8.25D+02 IAcc=2 IRadAn=         4 AccDes= 0.00D+00
 HarFok:  IExCor=  908 AccDes= 0.00D+00 IRadAn=         4 IDoV= 1
 ScaDFX=  1.000000  1.000000  1.000000  1.000000
 FoFCou: FMM=F IPFlag=           0 FMFlag=      100000 FMFlg1=           0
         NFxFlg=           0 DoJE=T BraDBF=F KetDBF=T FulRan=T
         Omega=  0.000000  0.000000  1.000000  0.000000  0.000000 ICntrl=     500 IOpCl=  0
         NMat0=    1 NMatS0=    1 NMatT0=    0 NMatD0=    1 NMtDS0=    0 NMtDT0=    0
         I1Cent=           4 NGrid=           0.
 Petite list used in FoFCou.
 Initial guess orbital symmetries:
       Occupied  (A) (A) (A) (A) (A) (A) (A) (A) (A) (A) (A) (A)
                 (A) (A) (A) (A) (A) (A) (A) (A) (A) (A) (A) (A)
                 (A) (A) (A) (A) (A) (A) (A) (A) (A) (A) (A) (A)
                 (A) (A) (A) (A) (A) (A) (A) (A)
       Virtual   (A) (A) (A) (A) (A) (A) (A) (A) (A) (A) (A) (A)
                 (A) (A) (A) (A) (A) (A) (A) (A) (A) (A) (A) (A)
                 (A) (A) (A) (A) (A) (A) (A) (A) (A) (A) (A) (A)
                 (A) (A) (A) (A) (A) (A) (A) (A) (A) (A) (A) (A)
                 (A) (A) (A) (A) (A) (A) (A) (A) (A) (A) (A) (A)
                 (A) (A) (A) (A) (A) (A) (A) (A) (A) (A) (A) (A)
                 (A) (A) (A) (A) (A) (A) (A) (A) (A) (A) (A) (A)
                 (A) (A) (A) (A) (A) (A) (A) (A) (A) (A) (A) (A)
                 (A) (A) (A) (A) (A) (A) (A) (A) (A) (A) (A) (A)
                 (A) (A) (A) (A) (A) (A) (A) (A) (A) (A) (A) (A)
                 (A) (A) (A) (A) (A) (A) (A) (A) (A) (A) (A) (A)
                 (A) (A) (A) (A) (A) (A) (A) (A) (A) (A) (A) (A)
                 (A) (A) (A) (A) (A) (A) (A) (A) (A) (A) (A) (A)
                 (A) (A) (A) (A) (A) (A) (A) (A) (A) (A) (A) (A)
                 (A) (A) (A) (A) (A) (A) (A) (A) (A) (A) (A) (A)
                 (A) (A) (A) (A) (A) (A) (A) (A) (A) (A) (A) (A)
                 (A) (A) (A) (A) (A) (A) (A) (A) (A) (A) (A) (A)
                 (A) (A) (A) (A) (A) (A) (A) (A) (A) (A) (A) (A)
                 (A) (A) (A) (A) (A) (A) (A) (A) (A) (A) (A) (A)
                 (A) (A) (A) (A) (A) (A) (A) (A) (A) (A) (A) (A)
                 (A) (A) (A) (A) (A) (A) (A) (A) (A) (A) (A) (A)
                 (A) (A) (A) (A) (A) (A) (A) (A) (A) (A) (A) (A)
                 (A)
 The electronic state of the initial guess is 1-A.
 Requested convergence on RMS density matrix=1.00D-08 within 128 cycles.
 Requested convergence on MAX density matrix=1.00D-06.
 Requested convergence on             energy=1.00D-06.
 No special actions if energy rises.
 Error on total polarization charges =  0.00939
 SCF Done:  E(RmPW1PW91) =  -468.281689910     A.U. after   13 cycles
             Convg  =    0.2019D-08             -V/T =  2.0099
 Range of M.O.s used for correlation:     1   309
 NBasis=   309 NAE=    44 NBE=    44 NFC=     0 NFV=     0
 NROrb=    309 NOA=    44 NOB=    44 NVA=   265 NVB=   265

 **** Warning!!: The largest alpha MO coefficient is  0.75782464D+02

 NEqPCM:  Using equilibrium solvation (IEInf=0, Eps=   2.2706, EpsInf=   2.2533)
          Differentiating once with respect to magnetic field using GIAOs.
          Electric field/nuclear overlap derivatives assumed to be zero.
 FoFCou: FMM=F IPFlag=           0 FMFlag=    10101102 FMFlg1=           0
         NFxFlg=    40000000 DoJE=F BraDBF=F KetDBF=T FulRan=T
         Omega=  0.000000  0.000000  1.000000  0.000000  0.000000 ICntrl=    6100 IOpCl=  0
         NMat0=    1 NMatS0=    1 NMatT0=    0 NMatD0=    1 NMtDS0=    0 NMtDT0=    0
         I1Cent=           7 NGrid=        1921.
 Symmetry not used in FoFCou.
          There are     3 degrees of freedom in the 1st order CPHF.  IDoFFX=0.
      3 vectors produced by pass  0 Test12= 3.89D-13 3.33D-08 XBig12= 3.55D+01 1.00D+00.
 AX will form     3 AO Fock derivatives at one time.
      3 vectors produced by pass  1 Test12= 3.89D-13 3.33D-08 XBig12= 7.69D-02 5.33D-02.
      3 vectors produced by pass  2 Test12= 3.89D-13 3.33D-08 XBig12= 1.17D-04 2.12D-03.
      3 vectors produced by pass  3 Test12= 3.89D-13 3.33D-08 XBig12= 3.11D-07 1.11D-04.
      3 vectors produced by pass  4 Test12= 3.89D-13 3.33D-08 XBig12= 1.57D-09 6.82D-06.
      3 vectors produced by pass  5 Test12= 3.89D-13 3.33D-08 XBig12= 5.17D-12 3.53D-07.
 Inverted reduced A of dimension    18 with in-core refinement.
 Calculating GIAO nuclear magnetic shielding tensors.
 SCF GIAO Magnetic shielding tensor (ppm):
      1  C    Isotropic =   167.2749   Anisotropy =    14.4458
   XX=   169.9231   YX=    -2.9271   ZX=     1.7760
   XY=    -8.4832   YY=   170.9180   ZY=    -1.0240
   XZ=     7.2753   YZ=     0.1200   ZZ=   160.9836
   Eigenvalues:   158.7709   166.1484   176.9055
      2  C    Isotropic =   127.2251   Anisotropy =    55.0851
   XX=   108.8761   YX=    -5.5472   ZX=    10.2682
   XY=    -6.3989   YY=   114.6161   ZY=    16.5355
   XZ=     6.6334   YZ=    14.7972   ZZ=   158.1830
   Eigenvalues:   100.6109   117.1159   163.9485
      3  C    Isotropic =   167.0162   Anisotropy =    23.0614
   XX=   181.7973   YX=    -4.1062   ZX=    -1.4938
   XY=     1.8916   YY=   169.7235   ZY=    -5.8228
   XZ=    -7.1346   YZ=    -2.3587   ZZ=   149.5277
   Eigenvalues:   148.1430   170.5150   182.3904
      4  C    Isotropic =   147.1458   Anisotropy =    15.6500
   XX=   150.8672   YX=     3.0045   ZX=    -0.5003
   XY=     4.8511   YY=   137.0479   ZY=     3.0031
   XZ=     9.2721   YZ=     1.1833   ZZ=   153.5223
   Eigenvalues:   135.9591   147.8992   157.5792
      5  C    Isotropic =   158.8948   Anisotropy =    20.9896
   XX=   164.3940   YX=    -5.9918   ZX=     4.8282
   XY=   -13.6223   YY=   161.2125   ZY=     2.0568
   XZ=     1.0514   YZ=    -0.6783   ZZ=   151.0777
   Eigenvalues:   149.2903   154.5062   172.8878
      6  C    Isotropic =   152.5150   Anisotropy =    23.5296
   XX=   165.5619   YX=     5.4510   ZX=     9.1116
   XY=     9.5802   YY=   142.0626   ZY=     1.2204
   XZ=    -3.9907   YZ=     1.5032   ZZ=   149.9204
   Eigenvalues:   139.8293   149.5143   168.2014
      7  C    Isotropic =   173.2654   Anisotropy =    37.9707
   XX=   197.1743   YX=    -2.1575   ZX=     4.4003
   XY=    -0.9701   YY=   162.6132   ZY=    -0.3115
   XZ=     9.8756   YZ=    -1.5549   ZZ=   160.0086
   Eigenvalues:   158.5838   162.6332   198.5792
      8  O    Isotropic =   285.0586   Anisotropy =    76.8766
   XX=   324.6649   YX=     0.7221   ZX=    41.2267
   XY=    -1.0351   YY=   272.6743   ZY=    22.3485
   XZ=    17.7452   YZ=     9.5884   ZZ=   257.8365
   Eigenvalues:   239.7869   279.0792   336.3097
      9  C    Isotropic =   159.9163   Anisotropy =    20.7701
   XX=   173.3965   YX=    -2.0879   ZX=    -3.8412
   XY=    -1.0148   YY=   157.1453   ZY=    -1.6904
   XZ=    -1.0163   YZ=    -0.4239   ZZ=   149.2071
   Eigenvalues:   148.7900   157.1959   173.7631
     10  C    Isotropic =   173.3362   Anisotropy =    35.4714
   XX=   170.6182   YX=     8.8063   ZX=   -11.3298
   XY=    12.9541   YY=   160.0733   ZY=   -10.5945
   XZ=    -5.6842   YZ=    -7.6486   ZZ=   189.3171
   Eigenvalues:   152.9168   170.1080   196.9838
     11  C    Isotropic =   176.4977   Anisotropy =    23.9697
   XX=   169.2211   YX=     1.2637   ZX=    10.6441
   XY=    -0.9832   YY=   171.5204   ZY=     6.8776
   XZ=     4.7852   YZ=     2.9192   ZZ=   188.7516
   Eigenvalues:   166.0678   170.9478   192.4775
     12  H    Isotropic =    29.4205   Anisotropy =     5.4608
   XX=    30.3123   YX=     0.4675   ZX=    -0.9997
   XY=     0.5627   YY=    25.6061   ZY=     2.2135
   XZ=    -0.4652   YZ=     1.9834   ZZ=    32.3432
   Eigenvalues:    24.9154    30.2852    33.0611
     13  H    Isotropic =    27.2562   Anisotropy =     5.0814
   XX=    27.5819   YX=     0.1482   ZX=    -1.2436
   XY=     1.1308   YY=    27.0178   ZY=    -1.4432
   XZ=    -2.5196   YZ=    -3.4621   ZZ=    27.1689
   Eigenvalues:    24.3611    26.7637    30.6438
     14  H    Isotropic =    30.5345   Anisotropy =     8.8033
   XX=    31.4923   YX=    -2.3795   ZX=    -0.2932
   XY=    -1.7348   YY=    35.5373   ZY=    -0.3097
   XZ=     0.3861   YZ=    -0.1107   ZZ=    24.5740
   Eigenvalues:    24.5700    30.6302    36.4034
     15  H    Isotropic =    29.3840   Anisotropy =     5.1501
   XX=    29.4354   YX=     1.2543   ZX=     1.5136
   XY=     0.6903   YY=    26.7950   ZY=    -2.0548
   XZ=     1.1047   YZ=    -1.6871   ZZ=    31.9217
   Eigenvalues:    25.6947    29.6400    32.8174
     16  H    Isotropic =    30.3986   Anisotropy =     4.3818
   XX=    32.4141   YX=     0.2993   ZX=    -0.3598
   XY=     0.2715   YY=    26.1407   ZY=     1.7912
   XZ=    -0.4446   YZ=     2.2286   ZZ=    32.6410
   Eigenvalues:    25.5479    32.3281    33.3198
     17  H    Isotropic =    30.5477   Anisotropy =     6.8969
   XX=    30.8557   YX=     0.3518   ZX=     2.3166
   XY=     0.7195   YY=    30.3289   ZY=     4.1447
   XZ=     1.4822   YZ=     3.9293   ZZ=    30.4585
   Eigenvalues:    26.1483    30.3491    35.1456
     18  H    Isotropic =    29.9103   Anisotropy =     8.9549
   XX=    31.2356   YX=     2.5884   ZX=    -1.6379
   XY=     2.7897   YY=    32.0513   ZY=    -3.7329
   XZ=    -1.1512   YZ=    -3.7052   ZZ=    26.4440
   Eigenvalues:    24.5898    29.2608    35.8802
     19  H    Isotropic =    30.6566   Anisotropy =     6.6182
   XX=    30.6664   YX=    -0.1439   ZX=     1.6588
   XY=    -0.3486   YY=    27.3776   ZY=    -2.2298
   XZ=     1.3628   YZ=    -1.9805   ZZ=    33.9257
   Eigenvalues:    26.7493    30.1517    35.0687
     20  H    Isotropic =    29.7379   Anisotropy =     7.9071
   XX=    29.9470   YX=    -1.9447   ZX=     0.2365
   XY=    -1.3848   YY=    34.3139   ZY=    -1.0546
   XZ=     1.0524   YZ=    -0.9512   ZZ=    24.9528
   Eigenvalues:    24.8018    29.4027    35.0093
     21  H    Isotropic =    31.0809   Anisotropy =     8.4863
   XX=    32.0041   YX=     0.6421   ZX=     4.0594
   XY=     0.3135   YY=    27.5814   ZY=     1.1969
   XZ=     3.2113   YZ=     1.3189   ZZ=    33.6572
   Eigenvalues:    27.3096    29.1946    36.7384
     22  H    Isotropic =    30.6498   Anisotropy =    10.6700
   XX=    33.8383   YX=    -5.3166   ZX=    -0.3547
   XY=    -4.0859   YY=    32.0548   ZY=     1.0380
   XZ=    -0.0736   YZ=     0.3499   ZZ=    26.0564
   Eigenvalues:    25.9534    28.2330    37.7632
     23  H    Isotropic =    30.6042   Anisotropy =    10.5669
   XX=    35.2161   YX=     3.8250   ZX=    -3.0764
   XY=     2.7092   YY=    28.7773   ZY=    -2.4667
   XZ=    -2.0808   YZ=    -1.8893   ZZ=    27.8193
   Eigenvalues:    26.0680    28.0958    37.6489
     24  H    Isotropic =    30.7348   Anisotropy =    18.7693
   XX=    40.8944   YX=    -0.8785   ZX=     5.5935
   XY=    -0.2790   YY=    23.3184   ZY=     4.5342
   XZ=     6.1888   YZ=     4.7065   ZZ=    27.9916
   Eigenvalues:    19.8059    29.1508    43.2477
     25  H    Isotropic =    29.9820   Anisotropy =     7.2239
   XX=    29.5639   YX=    -2.0381   ZX=    -0.9748
   XY=    -1.4124   YY=    33.7627   ZY=     1.6502
   XZ=    -0.8885   YZ=     1.6027   ZZ=    26.6194
   Eigenvalues:    26.1660    28.9820    34.7979
     26  H    Isotropic =    30.5448   Anisotropy =     6.9612
   XX=    29.7003   YX=     1.4020   ZX=    -1.6703
   XY=     0.7804   YY=    34.1127   ZY=    -1.6703
   XZ=    -2.1361   YZ=    -2.3630   ZZ=    27.8214
   Eigenvalues:    26.4476    30.0012    35.1856
     27  H    Isotropic =    30.7276   Anisotropy =     9.9847
   XX=    28.6054   YX=     0.8579   ZX=    -1.6886
   XY=     0.3625   YY=    26.4258   ZY=     0.5869
   XZ=    -0.5544   YZ=     1.5416   ZZ=    37.1517
   Eigenvalues:    26.1069    28.6919    37.3841
     28  H    Isotropic =    30.4903   Anisotropy =    10.5010
   XX=    36.7399   YX=    -0.7996   ZX=    -2.2931
   XY=     0.1399   YY=    26.1174   ZY=    -0.4503
   XZ=    -2.8636   YZ=    -0.7436   ZZ=    28.6135
   Eigenvalues:    25.8911    28.0887    37.4909
     29  H    Isotropic =    31.2564   Anisotropy =     6.9826
   XX=    30.8960   YX=     1.3797   ZX=     1.6717
   XY=     0.9116   YY=    33.1713   ZY=     2.7095
   XZ=     2.0797   YZ=     3.8232   ZZ=    29.7018
   Eigenvalues:    27.3945    30.4632    35.9114
     30  H    Isotropic =    30.1359   Anisotropy =     7.3915
   XX=    30.1581   YX=     0.9824   ZX=     0.9348
   XY=     0.8920   YY=    25.9634   ZY=    -2.1015
   XZ=    -0.8023   YZ=    -3.1876   ZZ=    34.2862
   Eigenvalues:    25.0296    30.3146    35.0636
     31  H    Isotropic =    30.5134   Anisotropy =    11.1510
   XX=    35.3903   YX=    -3.0705   ZX=     3.2499
   XY=    -3.1055   YY=    27.1790   ZY=    -0.7721
   XZ=     4.0187   YZ=    -0.8090   ZZ=    28.9709
   Eigenvalues:    26.0468    27.5460    37.9474
 End of Minotr Frequency-dependent properties file   721 does not exist.
 End of Minotr Frequency-dependent properties file   722 does not exist.

 **********************************************************************

            Population analysis using the SCF density.

 **********************************************************************

 Orbital symmetries:
       Occupied  (A) (A) (A) (A) (A) (A) (A) (A) (A) (A) (A) (A)
                 (A) (A) (A) (A) (A) (A) (A) (A) (A) (A) (A) (A)
                 (A) (A) (A) (A) (A) (A) (A) (A) (A) (A) (A) (A)
                 (A) (A) (A) (A) (A) (A) (A) (A)
       Virtual   (A) (A) (A) (A) (A) (A) (A) (A) (A) (A) (A) (A)
                 (A) (A) (A) (A) (A) (A) (A) (A) (A) (A) (A) (A)
                 (A) (A) (A) (A) (A) (A) (A) (A) (A) (A) (A) (A)
                 (A) (A) (A) (A) (A) (A) (A) (A) (A) (A) (A) (A)
                 (A) (A) (A) (A) (A) (A) (A) (A) (A) (A) (A) (A)
                 (A) (A) (A) (A) (A) (A) (A) (A) (A) (A) (A) (A)
                 (A) (A) (A) (A) (A) (A) (A) (A) (A) (A) (A) (A)
                 (A) (A) (A) (A) (A) (A) (A) (A) (A) (A) (A) (A)
                 (A) (A) (A) (A) (A) (A) (A) (A) (A) (A) (A) (A)
                 (A) (A) (A) (A) (A) (A) (A) (A) (A) (A) (A) (A)
                 (A) (A) (A) (A) (A) (A) (A) (A) (A) (A) (A) (A)
                 (A) (A) (A) (A) (A) (A) (A) (A) (A) (A) (A) (A)
                 (A) (A) (A) (A) (A) (A) (A) (A) (A) (A) (A) (A)
                 (A) (A) (A) (A) (A) (A) (A) (A) (A) (A) (A) (A)
                 (A) (A) (A) (A) (A) (A) (A) (A) (A) (A) (A) (A)
                 (A) (A) (A) (A) (A) (A) (A) (A) (A) (A) (A) (A)
                 (A) (A) (A) (A) (A) (A) (A) (A) (A) (A) (A) (A)
                 (A) (A) (A) (A) (A) (A) (A) (A) (A) (A) (A) (A)
                 (A) (A) (A) (A) (A) (A) (A) (A) (A) (A) (A) (A)
                 (A) (A) (A) (A) (A) (A) (A) (A) (A) (A) (A) (A)
                 (A) (A) (A) (A) (A) (A) (A) (A) (A) (A) (A) (A)
                 (A) (A) (A) (A) (A) (A) (A) (A) (A) (A) (A) (A)
                 (A)
 The electronic state is 1-A.
 Alpha  occ. eigenvalues --  -19.24135 -10.29386 -10.25695 -10.24803 -10.24285
 Alpha  occ. eigenvalues --  -10.24246 -10.23691 -10.23655 -10.23639 -10.23629
 Alpha  occ. eigenvalues --  -10.22988  -1.04780  -0.85723  -0.82385  -0.76731
 Alpha  occ. eigenvalues --   -0.75597  -0.70841  -0.69229  -0.62576  -0.61910
 Alpha  occ. eigenvalues --   -0.57816  -0.56942  -0.51275  -0.48446  -0.47366
 Alpha  occ. eigenvalues --   -0.46043  -0.45539  -0.43005  -0.42766  -0.41786
 Alpha  occ. eigenvalues --   -0.40716  -0.39880  -0.39060  -0.38169  -0.37343
 Alpha  occ. eigenvalues --   -0.36919  -0.35575  -0.34765  -0.33435  -0.33089
 Alpha  occ. eigenvalues --   -0.32163  -0.31221  -0.29808  -0.27515
 Alpha virt. eigenvalues --    0.00425   0.01971   0.02163   0.02605   0.03700
 Alpha virt. eigenvalues --    0.04158   0.04698   0.05117   0.05390   0.06601
 Alpha virt. eigenvalues --    0.06976   0.07521   0.07995   0.08604   0.09497
 Alpha virt. eigenvalues --    0.09891   0.10049   0.10199   0.10673   0.11244
 Alpha virt. eigenvalues --    0.11540   0.12897   0.13544   0.14071   0.14366
 Alpha virt. eigenvalues --    0.14736   0.15379   0.16234   0.17156   0.18162
 Alpha virt. eigenvalues --    0.18470   0.18883   0.19417   0.19882   0.20120
 Alpha virt. eigenvalues --    0.20578   0.21377   0.21641   0.22019   0.22436
 Alpha virt. eigenvalues --    0.22760   0.23110   0.23664   0.24272   0.24569
 Alpha virt. eigenvalues --    0.24809   0.25422   0.26148   0.26988   0.27680
 Alpha virt. eigenvalues --    0.27774   0.28304   0.28386   0.29528   0.29889
 Alpha virt. eigenvalues --    0.30793   0.31190   0.32139   0.32574   0.32906
 Alpha virt. eigenvalues --    0.34031   0.34742   0.35419   0.36364   0.37058
 Alpha virt. eigenvalues --    0.38159   0.38676   0.39950   0.40440   0.41106
 Alpha virt. eigenvalues --    0.42637   0.44233   0.45881   0.49880   0.51702
 Alpha virt. eigenvalues --    0.62731   0.65277   0.65707   0.66616   0.67886
 Alpha virt. eigenvalues --    0.68901   0.69525   0.70235   0.72023   0.72663
 Alpha virt. eigenvalues --    0.73021   0.73992   0.75378   0.75753   0.76311
 Alpha virt. eigenvalues --    0.77828   0.78656   0.80758   0.82405   0.85183
 Alpha virt. eigenvalues --    0.87402   0.88630   0.88893   0.90287   0.91053
 Alpha virt. eigenvalues --    0.93816   0.94701   0.98180   0.98727   0.99538
 Alpha virt. eigenvalues --    1.00238   1.01768   1.02341   1.03737   1.04047
 Alpha virt. eigenvalues --    1.04369   1.07703   1.08936   1.10619   1.11771
 Alpha virt. eigenvalues --    1.13466   1.14459   1.14816   1.16049   1.17052
 Alpha virt. eigenvalues --    1.17768   1.19235   1.19961   1.20829   1.22305
 Alpha virt. eigenvalues --    1.23367   1.26484   1.28579   1.30386   1.33852
 Alpha virt. eigenvalues --    1.35472   1.38040   1.40480   1.41737   1.45803
 Alpha virt. eigenvalues --    1.46421   1.49424   1.52288   1.56094   1.56861
 Alpha virt. eigenvalues --    1.59359   1.60881   1.62889   1.65265   1.66763
 Alpha virt. eigenvalues --    1.69173   1.73296   1.76091   1.77373   1.79327
 Alpha virt. eigenvalues --    1.80576   1.83746   1.86401   1.87638   1.88357
 Alpha virt. eigenvalues --    1.89744   1.90190   1.90827   1.93952   1.95866
 Alpha virt. eigenvalues --    1.96682   1.97228   2.00009   2.01620   2.02979
 Alpha virt. eigenvalues --    2.05173   2.05695   2.06236   2.06460   2.08274
 Alpha virt. eigenvalues --    2.09335   2.10559   2.12493   2.14021   2.14557
 Alpha virt. eigenvalues --    2.15422   2.15667   2.17013   2.19089   2.19892
 Alpha virt. eigenvalues --    2.20785   2.22159   2.23494   2.25923   2.30803
 Alpha virt. eigenvalues --    2.33011   2.33899   2.35382   2.36551   2.38195
 Alpha virt. eigenvalues --    2.39148   2.39638   2.40271   2.42426   2.44429
 Alpha virt. eigenvalues --    2.47487   2.50603   2.52844   2.55265   2.57269
 Alpha virt. eigenvalues --    2.58613   2.59063   2.64113   2.64661   2.67274
 Alpha virt. eigenvalues --    2.68008   2.70115   2.71756   2.72783   2.73362
 Alpha virt. eigenvalues --    2.74056   2.75920   2.76845   2.78025   2.79219
 Alpha virt. eigenvalues --    2.80446   2.80902   2.82730   2.84148   2.85325
 Alpha virt. eigenvalues --    2.87192   2.88729   2.90004   2.91367   2.91986
 Alpha virt. eigenvalues --    2.93706   2.95136   2.95347   2.97467   2.99096
 Alpha virt. eigenvalues --    3.00767   3.02697   3.08136   3.13476   3.28778
 Alpha virt. eigenvalues --    3.29586   3.29951   3.35783   3.38198   3.39114
 Alpha virt. eigenvalues --    3.40594   3.42305   3.47579   3.49630   3.50108
 Alpha virt. eigenvalues --    3.51152   3.52756   3.52846   3.55045   3.56754
 Alpha virt. eigenvalues --    3.58214   3.59703   3.62688   3.65196   4.35324
 Alpha virt. eigenvalues --    4.42013   4.44377   4.54836   4.58439   4.61071
 Alpha virt. eigenvalues --    4.62106   4.77643   4.84421   4.89177   4.94183
          Condensed to atoms (all electrons):
              1          2          3          4          5          6
     1  C    6.644842   0.109741   0.127869  -0.295371  -0.030082  -0.125042
     2  C    0.109741   6.894368  -0.029422  -0.900489  -0.190331  -0.398265
     3  C    0.127869  -0.029422   6.564220  -1.554832   0.157589  -0.064415
     4  C   -0.295371  -0.900489  -1.554832  10.362277  -0.081336   0.113240
     5  C   -0.030082  -0.190331   0.157589  -0.081336   5.720088  -0.087888
     6  C   -0.125042  -0.398265  -0.064415   0.113240  -0.087888   6.337521
     7  C   -0.507633  -0.258558  -0.101731   0.102634   0.155737   0.193853
     8  O   -0.020645  -0.002121  -0.117992   0.190451   0.000906  -0.019232
     9  C    0.118187   0.354166   1.253748  -3.211079  -0.009687  -0.139235
    10  C   -0.027255   0.074037  -0.263876   0.607712  -0.038003  -0.012491
    11  C   -0.041843  -0.097425  -0.245598   0.590610   0.025323  -0.014384
    12  H    0.327215  -0.003744  -0.010014  -0.010765   0.003189  -0.031691
    13  H    0.003332   0.145899  -0.019831   0.169889  -0.001969   0.075198
    14  H    0.029514   0.051676   0.339000  -0.079950   0.001103  -0.015515
    15  H   -0.018443  -0.029242   0.432661  -0.053017  -0.034924   0.014038
    16  H   -0.014061  -0.012038  -0.027560   0.328766  -0.019947  -0.001105
    17  H   -0.087675   0.004325  -0.089649   0.016630   0.469263  -0.002420
    18  H   -0.046101  -0.007476  -0.032150   0.036953   0.350447   0.040080
    19  H   -0.073862  -0.045715   0.006632  -0.009593  -0.001469   0.409474
    20  H   -0.050102  -0.025237  -0.009499   0.035417   0.035739   0.348006
    21  H   -0.096935  -0.002935   0.001756   0.001114   0.004007  -0.000304
    22  H   -0.134442  -0.001929  -0.011786   0.002626   0.027430   0.005067
    23  H   -0.142586  -0.014220  -0.004741   0.003021   0.005068   0.035650
    24  H   -0.005494   0.121251  -0.003289  -0.087982   0.000118   0.010600
    25  H    0.000704   0.024805  -0.015313  -0.072893   0.011834  -0.009697
    26  H    0.000248   0.011198  -0.002096  -0.011859   0.000207   0.000025
    27  H   -0.000357   0.011646   0.000547  -0.001323  -0.003601  -0.000714
    28  H   -0.000092   0.000677  -0.008636   0.051299   0.000593  -0.000177
    29  H   -0.000179   0.040055  -0.000815  -0.026847   0.002190  -0.007802
    30  H   -0.000734  -0.026659   0.022057  -0.017276  -0.001154   0.002310
    31  H    0.000143  -0.008987  -0.000270   0.057717   0.001510   0.002305
              7          8          9         10         11         12
     1  C   -0.507633  -0.020645   0.118187  -0.027255  -0.041843   0.327215
     2  C   -0.258558  -0.002121   0.354166   0.074037  -0.097425  -0.003744
     3  C   -0.101731  -0.117992   1.253748  -0.263876  -0.245598  -0.010014
     4  C    0.102634   0.190451  -3.211079   0.607712   0.590610  -0.010765
     5  C    0.155737   0.000906  -0.009687  -0.038003   0.025323   0.003189
     6  C    0.193853  -0.019232  -0.139235  -0.012491  -0.014384  -0.031691
     7  C    5.785097   0.030244  -0.023525  -0.004827   0.002637  -0.005855
     8  O    0.030244   8.368912  -0.075324  -0.010433   0.011076   0.005330
     9  C   -0.023525  -0.075324   9.330117  -0.888831  -0.588495   0.005006
    10  C   -0.004827  -0.010433  -0.888831   5.764841   0.067533   0.000582
    11  C    0.002637   0.011076  -0.588495   0.067533   5.601249  -0.000191
    12  H   -0.005855   0.005330   0.005006   0.000582  -0.000191   0.542696
    13  H    0.008637  -0.038694  -0.117255   0.016905   0.018543  -0.000092
    14  H    0.000274  -0.001086   0.000750  -0.001195  -0.000226  -0.000015
    15  H   -0.001546   0.007457  -0.001648  -0.000027  -0.001959   0.002753
    16  H    0.000706   0.011152  -0.000557  -0.009462   0.008909   0.000086
    17  H   -0.005562   0.000256  -0.003147   0.001504  -0.000337   0.005007
    18  H   -0.010185   0.000499  -0.003381   0.000459  -0.001157  -0.004582
    19  H    0.001721   0.009903   0.010995   0.001386  -0.000604   0.004843
    20  H    0.000131  -0.003955   0.001572  -0.001490   0.000787  -0.003842
    21  H    0.441945   0.000080   0.000188   0.000074  -0.000001   0.004600
    22  H    0.473287  -0.000135  -0.000336  -0.000027   0.000036  -0.003719
    23  H    0.477250   0.000110  -0.000439  -0.000022   0.000016  -0.003712
    24  H   -0.003178   0.203178  -0.005263   0.001033   0.007382  -0.000160
    25  H    0.000063  -0.000691   0.351694  -0.005741  -0.013028   0.000001
    26  H   -0.000015  -0.000168  -0.096958   0.452180  -0.005022   0.000000
    27  H   -0.000163   0.000106  -0.098199   0.448878   0.003000   0.000000
    28  H    0.000004  -0.000116  -0.151416   0.457538   0.009903   0.000000
    29  H   -0.000127  -0.015872  -0.092232   0.017781   0.410307   0.000001
    30  H   -0.000062  -0.001077  -0.028067  -0.008680   0.418313   0.000005
    31  H    0.000041   0.001130  -0.125622  -0.007757   0.443383   0.000000
             13         14         15         16         17         18
     1  C    0.003332   0.029514  -0.018443  -0.014061  -0.087675  -0.046101
     2  C    0.145899   0.051676  -0.029242  -0.012038   0.004325  -0.007476
     3  C   -0.019831   0.339000   0.432661  -0.027560  -0.089649  -0.032150
     4  C    0.169889  -0.079950  -0.053017   0.328766   0.016630   0.036953
     5  C   -0.001969   0.001103  -0.034924  -0.019947   0.469263   0.350447
     6  C    0.075198  -0.015515   0.014038  -0.001105  -0.002420   0.040080
     7  C    0.008637   0.000274  -0.001546   0.000706  -0.005562  -0.010185
     8  O   -0.038694  -0.001086   0.007457   0.011152   0.000256   0.000499
     9  C   -0.117255   0.000750  -0.001648  -0.000557  -0.003147  -0.003381
    10  C    0.016905  -0.001195  -0.000027  -0.009462   0.001504   0.000459
    11  C    0.018543  -0.000226  -0.001959   0.008909  -0.000337  -0.001157
    12  H   -0.000092  -0.000015   0.002753   0.000086   0.005007  -0.004582
    13  H    0.627450  -0.000124  -0.000078  -0.002482  -0.000068   0.000014
    14  H   -0.000124   0.561698  -0.030381  -0.004150  -0.004359  -0.002679
    15  H   -0.000078  -0.030381   0.536711   0.005135   0.004689  -0.004024
    16  H   -0.002482  -0.004150   0.005135   0.582132   0.003588   0.000062
    17  H   -0.000068  -0.004359   0.004689   0.003588   0.555985  -0.030517
    18  H    0.000014  -0.002679  -0.004024   0.000062  -0.030517   0.555642
    19  H   -0.003229  -0.000021   0.000066   0.001203   0.003047  -0.000041
    20  H   -0.005235   0.000010  -0.000015   0.000056  -0.000038  -0.000128
    21  H   -0.000003   0.000000   0.000001   0.000001   0.003413  -0.000166
    22  H   -0.000002   0.000002   0.000001   0.000001  -0.000008   0.000009
    23  H    0.000002  -0.000004   0.000001   0.000001  -0.000280   0.002825
    24  H   -0.008094   0.000001  -0.000016  -0.000039   0.000002  -0.000003
    25  H   -0.000031   0.004521  -0.000231  -0.005132   0.000011  -0.000011
    26  H    0.000606   0.000001   0.000000  -0.000355   0.000000   0.000000
    27  H   -0.000051   0.000005   0.000000   0.003836   0.000000   0.000000
    28  H    0.000000  -0.000005   0.000001   0.000123   0.000000   0.000000
    29  H   -0.000313   0.000020   0.000060  -0.000110   0.000000   0.000000
    30  H    0.000038   0.000143   0.000766   0.000006  -0.000001   0.000008
    31  H    0.000008  -0.000027  -0.000017  -0.000088   0.000000   0.000000
             19         20         21         22         23         24
     1  C   -0.073862  -0.050102  -0.096935  -0.134442  -0.142586  -0.005494
     2  C   -0.045715  -0.025237  -0.002935  -0.001929  -0.014220   0.121251
     3  C    0.006632  -0.009499   0.001756  -0.011786  -0.004741  -0.003289
     4  C   -0.009593   0.035417   0.001114   0.002626   0.003021  -0.087982
     5  C   -0.001469   0.035739   0.004007   0.027430   0.005068   0.000118
     6  C    0.409474   0.348006  -0.000304   0.005067   0.035650   0.010600
     7  C    0.001721   0.000131   0.441945   0.473287   0.477250  -0.003178
     8  O    0.009903  -0.003955   0.000080  -0.000135   0.000110   0.203178
     9  C    0.010995   0.001572   0.000188  -0.000336  -0.000439  -0.005263
    10  C    0.001386  -0.001490   0.000074  -0.000027  -0.000022   0.001033
    11  C   -0.000604   0.000787  -0.000001   0.000036   0.000016   0.007382
    12  H    0.004843  -0.003842   0.004600  -0.003719  -0.003712  -0.000160
    13  H   -0.003229  -0.005235  -0.000003  -0.000002   0.000002  -0.008094
    14  H   -0.000021   0.000010   0.000000   0.000002  -0.000004   0.000001
    15  H    0.000066  -0.000015   0.000001   0.000001   0.000001  -0.000016
    16  H    0.001203   0.000056   0.000001   0.000001   0.000001  -0.000039
    17  H    0.003047  -0.000038   0.003413  -0.000008  -0.000280   0.000002
    18  H   -0.000041  -0.000128  -0.000166   0.000009   0.002825  -0.000003
    19  H    0.547791  -0.027337   0.003297  -0.000300  -0.000004  -0.000267
    20  H   -0.027337   0.533385  -0.000084   0.002565  -0.000009  -0.000014
    21  H    0.003297  -0.000084   0.538097  -0.028583  -0.028544   0.000000
    22  H   -0.000300   0.002565  -0.028583   0.532372  -0.025467   0.000000
    23  H   -0.000004  -0.000009  -0.028544  -0.025467   0.534435   0.000000
    24  H   -0.000267  -0.000014   0.000000   0.000000   0.000000   0.411938
    25  H    0.000005   0.000002   0.000000   0.000000   0.000000   0.000035
    26  H    0.000008   0.000004   0.000000   0.000000   0.000000  -0.000044
    27  H   -0.000006   0.000000   0.000000   0.000000   0.000000   0.000008
    28  H    0.000000   0.000000   0.000000   0.000000   0.000000   0.000008
    29  H    0.000001   0.000002   0.000000   0.000000   0.000000   0.010139
    30  H    0.000001   0.000000   0.000000   0.000000   0.000000  -0.001147
    31  H    0.000000   0.000000   0.000000   0.000000   0.000000  -0.000029
             25         26         27         28         29         30
     1  C    0.000704   0.000248  -0.000357  -0.000092  -0.000179  -0.000734
     2  C    0.024805   0.011198   0.011646   0.000677   0.040055  -0.026659
     3  C   -0.015313  -0.002096   0.000547  -0.008636  -0.000815   0.022057
     4  C   -0.072893  -0.011859  -0.001323   0.051299  -0.026847  -0.017276
     5  C    0.011834   0.000207  -0.003601   0.000593   0.002190  -0.001154
     6  C   -0.009697   0.000025  -0.000714  -0.000177  -0.007802   0.002310
     7  C    0.000063  -0.000015  -0.000163   0.000004  -0.000127  -0.000062
     8  O   -0.000691  -0.000168   0.000106  -0.000116  -0.015872  -0.001077
     9  C    0.351694  -0.096958  -0.098199  -0.151416  -0.092232  -0.028067
    10  C   -0.005741   0.452180   0.448878   0.457538   0.017781  -0.008680
    11  C   -0.013028  -0.005022   0.003000   0.009903   0.410307   0.418313
    12  H    0.000001   0.000000   0.000000   0.000000   0.000001   0.000005
    13  H   -0.000031   0.000606  -0.000051   0.000000  -0.000313   0.000038
    14  H    0.004521   0.000001   0.000005  -0.000005   0.000020   0.000143
    15  H   -0.000231   0.000000   0.000000   0.000001   0.000060   0.000766
    16  H   -0.005132  -0.000355   0.003836   0.000123  -0.000110   0.000006
    17  H    0.000011   0.000000   0.000000   0.000000   0.000000  -0.000001
    18  H   -0.000011   0.000000   0.000000   0.000000   0.000000   0.000008
    19  H    0.000005   0.000008  -0.000006   0.000000   0.000001   0.000001
    20  H    0.000002   0.000004   0.000000   0.000000   0.000002   0.000000
    21  H    0.000000   0.000000   0.000000   0.000000   0.000000   0.000000
    22  H    0.000000   0.000000   0.000000   0.000000   0.000000   0.000000
    23  H    0.000000   0.000000   0.000000   0.000000   0.000000   0.000000
    24  H    0.000035  -0.000044   0.000008   0.000008   0.010139  -0.001147
    25  H    0.579396   0.005019  -0.003697  -0.003969   0.005414  -0.001862
    26  H    0.005019   0.537353  -0.027816  -0.028025   0.003856   0.000011
    27  H   -0.003697  -0.027816   0.527993  -0.024887   0.000077  -0.000127
    28  H   -0.003969  -0.028025  -0.024887   0.528305  -0.000382   0.000034
    29  H    0.005414   0.003856   0.000077  -0.000382   0.572886  -0.029527
    30  H   -0.001862   0.000011  -0.000127   0.000034  -0.029527   0.518881
    31  H   -0.005887  -0.000072   0.000009   0.002279  -0.027685  -0.024620
             31
     1  C    0.000143
     2  C   -0.008987
     3  C   -0.000270
     4  C    0.057717
     5  C    0.001510
     6  C    0.002305
     7  C    0.000041
     8  O    0.001130
     9  C   -0.125622
    10  C   -0.007757
    11  C    0.443383
    12  H    0.000000
    13  H    0.000008
    14  H   -0.000027
    15  H   -0.000017
    16  H   -0.000088
    17  H    0.000000
    18  H    0.000000
    19  H    0.000000
    20  H    0.000000
    21  H    0.000000
    22  H    0.000000
    23  H    0.000000
    24  H   -0.000029
    25  H   -0.005887
    26  H   -0.000072
    27  H    0.000009
    28  H    0.002279
    29  H   -0.027685
    30  H   -0.024620
    31  H    0.516020
 Mulliken atomic charges:
              1
     1  C    0.357140
     2  C    0.210948
     3  C   -0.292565
     4  C   -0.255745
     5  C   -0.471950
     6  C   -0.656991
     7  C   -0.751295
     8  O   -0.533251
     9  C    0.234272
    10  C   -0.632327
    11  C   -0.608737
    12  H    0.177064
    13  H    0.131030
    14  H    0.151022
    15  H    0.171225
    16  H    0.151324
    17  H    0.156340
    18  H    0.155605
    19  H    0.162074
    20  H    0.169311
    21  H    0.158981
    22  H    0.163339
    23  H    0.161651
    24  H    0.349326
    25  H    0.154677
    26  H    0.161714
    27  H    0.164833
    28  H    0.166944
    29  H    0.139102
    30  H    0.178419
    31  H    0.176518
 Sum of Mulliken atomic charges =   0.00000
 Mulliken charges with hydrogens summed into heavy atoms:
              1
     1  C    0.534204
     2  C    0.341978
     3  C    0.029682
     4  C   -0.104421
     5  C   -0.160005
     6  C   -0.325606
     7  C   -0.267324
     8  O   -0.183925
     9  C    0.388950
    10  C   -0.138836
    11  C   -0.114697
 Sum of Mulliken charges with hydrogens summed into heavy atoms =   0.00000
 Electronic spatial extent (au):  <R**2>=           2167.9812
 Charge=              0.0000 electrons
 Dipole moment (field-independent basis, Debye):
    X=             -1.6108    Y=              0.7750    Z=              0.9230  Tot=              2.0118
 Quadrupole moment (field-independent basis, Debye-Ang):
   XX=            -69.6771   YY=            -73.3357   ZZ=            -72.6779
   XY=              1.2294   XZ=              1.7450   YZ=             -1.5436
 Traceless Quadrupole moment (field-independent basis, Debye-Ang):
   XX=              2.2198   YY=             -1.4388   ZZ=             -0.7810
   XY=              1.2294   XZ=              1.7450   YZ=             -1.5436
 Octapole moment (field-independent basis, Debye-Ang**2):
  XXX=            -12.8162  YYY=             -3.1225  ZZZ=             -3.3452  XYY=             -4.0654
  XXY=             -2.8064  XXZ=             -7.6787  XZZ=             -2.5328  YZZ=              1.1462
  YYZ=              0.7963  XYZ=             -4.0873
 Hexadecapole moment (field-independent basis, Debye-Ang**3):
 XXXX=          -2125.3472 YYYY=           -512.1787 ZZZZ=           -389.3232 XXXY=            -10.5907
 XXXZ=             -3.1417 YYYX=              2.4819 YYYZ=              0.6007 ZZZX=              7.8368
 ZZZY=              7.8481 XXYY=           -428.5449 XXZZ=           -421.1477 YYZZ=           -154.3027
 XXYZ=              5.5139 YYXZ=              2.9756 ZZXY=              6.7498
 N-N= 6.935194867728D+02 E-N=-2.472396190924D+03  KE= 4.637021822871D+02
 1\1\GINC-COMPUTE-10-0\SP\RmPW1PW91\6-31+G(d,p)\C10H20O1\ASAROTTI.IQUIR
 \19-Sep-2024\0\\# mPW1PW91/6-31+G** nmr scrf=(pcm,solvent=benzene)\\co
 mment\\0,1\C,0,-2.24098,-0.017034,0.193297\C,0,0.076803,-1.025676,-0.1
 84042\C,0,-0.136813,1.418222,0.403179\C,0,0.66626,0.388087,-0.413483\C
 ,0,-1.628172,1.385765,0.032239\C,0,-1.405365,-1.055928,-0.57702\C,0,-3
 .710527,-0.048072,-0.240691\O,0,0.121873,-1.439025,1.188297\C,0,2.2059
 42,0.540218,-0.248213\C,0,2.983245,-0.215448,-1.338759\C,0,2.776115,0.
 194519,1.141377\H,0,-2.189589,-0.284592,1.257255\H,0,0.619693,-1.75640
 2,-0.80518\H,0,0.270271,2.423991,0.232571\H,0,-0.028448,1.206402,1.473
 963\H,0,0.474704,0.609085,-1.476634\H,0,-1.748115,1.711479,-1.013364\H
 ,0,-2.184489,2.107318,0.645808\H,0,-1.487776,-0.870195,-1.657982\H,0,-
 1.795922,-2.064448,-0.392873\H,0,-3.814958,0.208607,-1.303448\H,0,-4.1
 48714,-1.042849,-0.094643\H,0,-4.309839,0.668895,0.333771\H,0,1.049238
 ,-1.483685,1.45893\H,0,2.400545,1.612268,-0.403301\H,0,2.859534,-1.301
 721,-1.247595\H,0,2.648808,0.07422,-2.342026\H,0,4.057157,-0.004274,-1
 .270719\H,0,2.859178,-0.891477,1.293947\H,0,2.17984,0.614246,1.957877\
 H,0,3.794853,0.587413,1.239959\\Version=EM64L-G09RevC.01\State=1-A\HF=
 -468.2816899\RMSD=2.019e-09\Dipole=0.6337532,0.304922,-0.3631353\Quadr
 upole=1.6503832,-1.0697086,-0.5806745,-0.9140166,1.2973742,1.1476119\P
 G=C01 [X(C10H20O1)]\\@


 MISERY NO LONGER LOVES COMPANY.  NOWADAYS IT INSISTS ON IT.

                                              -- BAKER'S LAW
 Job cpu time:  0 days  0 hours 41 minutes 22.1 seconds.
 File lengths (MBytes):  RWF=    121 Int=      0 D2E=      0 Chk=      7 Scr=      1
 Normal termination of Gaussian 09 at Thu Sep 19 10:10:27 2024.
