 Entering Gaussian System, Link 0=g09
 Input=/home/asarotti.iquir/SCF2/03_Mentol01_OptB_NMR_benzene.gjc
 Output=/home/asarotti.iquir/SCF2/03_Mentol01_OptB_NMR_benzene.log
 Initial command:
 /opt/ohpc/pub/apps/software/Gaussian/09/AMD64.SSE4a-enabled/g09/l1.exe /local/asarotti.iquir/Gau-1838646.inp -scrdir=/local/asarotti.iquir/
 Entering Link 1 = /opt/ohpc/pub/apps/software/Gaussian/09/AMD64.SSE4a-enabled/g09/l1.exe PID=   1838647.
  
 Copyright (c) 1988,1990,1992,1993,1995,1998,2003,2009,2011,
            Gaussian, Inc.  All Rights Reserved.
  
 This is part of the Gaussian(R) 09 program.  It is based on
 the Gaussian(R) 03 system (copyright 2003, Gaussian, Inc.),
 the Gaussian(R) 98 system (copyright 1998, Gaussian, Inc.),
 the Gaussian(R) 94 system (copyright 1995, Gaussian, Inc.),
 the Gaussian 92(TM) system (copyright 1992, Gaussian, Inc.),
 the Gaussian 90(TM) system (copyright 1990, Gaussian, Inc.),
 the Gaussian 88(TM) system (copyright 1988, Gaussian, Inc.),
 the Gaussian 86(TM) system (copyright 1986, Carnegie Mellon
 University), and the Gaussian 82(TM) system (copyright 1983,
 Carnegie Mellon University). Gaussian is a federally registered
 trademark of Gaussian, Inc.
  
 This software contains proprietary and confidential information,
 including trade secrets, belonging to Gaussian, Inc.
  
 This software is provided under written license and may be
 used, copied, transmitted, or stored only in accord with that
 written license.
  
 The following legend is applicable only to US Government
 contracts under FAR:
  
                    RESTRICTED RIGHTS LEGEND
  
 Use, reproduction and disclosure by the US Government is
 subject to restrictions as set forth in subparagraphs (a)
 and (c) of the Commercial Computer Software - Restricted
 Rights clause in FAR 52.227-19.
  
 Gaussian, Inc.
 340 Quinnipiac St., Bldg. 40, Wallingford CT 06492
  
  
 ---------------------------------------------------------------
 Warning -- This program may not be used in any manner that
 competes with the business of Gaussian, Inc. or will provide
 assistance to any competitor of Gaussian, Inc.  The licensee
 of this program is prohibited from giving any competitor of
 Gaussian, Inc. access to this program.  By using this program,
 the user acknowledges that Gaussian, Inc. is engaged in the
 business of creating and licensing software in the field of
 computational chemistry and represents and warrants to the
 licensee that it is not a competitor of Gaussian, Inc. and that
 it will not use this program in any manner prohibited above.
 ---------------------------------------------------------------
  

 Cite this work as:
 Gaussian 09, Revision C.01,
 M. J. Frisch, G. W. Trucks, H. B. Schlegel, G. E. Scuseria, 
 M. A. Robb, J. R. Cheeseman, G. Scalmani, V. Barone, B. Mennucci, 
 G. A. Petersson, H. Nakatsuji, M. Caricato, X. Li, H. P. Hratchian, 
 A. F. Izmaylov, J. Bloino, G. Zheng, J. L. Sonnenberg, M. Hada, 
 M. Ehara, K. Toyota, R. Fukuda, J. Hasegawa, M. Ishida, T. Nakajima, 
 Y. Honda, O. Kitao, H. Nakai, T. Vreven, J. A. Montgomery, Jr., 
 J. E. Peralta, F. Ogliaro, M. Bearpark, J. J. Heyd, E. Brothers, 
 K. N. Kudin, V. N. Staroverov, T. Keith, R. Kobayashi, J. Normand, 
 K. Raghavachari, A. Rendell, J. C. Burant, S. S. Iyengar, J. Tomasi, 
 M. Cossi, N. Rega, J. M. Millam, M. Klene, J. E. Knox, J. B. Cross, 
 V. Bakken, C. Adamo, J. Jaramillo, R. Gomperts, R. E. Stratmann, 
 O. Yazyev, A. J. Austin, R. Cammi, C. Pomelli, J. W. Ochterski, 
 R. L. Martin, K. Morokuma, V. G. Zakrzewski, G. A. Voth, 
 P. Salvador, J. J. Dannenberg, S. Dapprich, A. D. Daniels, 
 O. Farkas, J. B. Foresman, J. V. Ortiz, J. Cioslowski, 
 and D. J. Fox, Gaussian, Inc., Wallingford CT, 2010.
 
 ******************************************
 Gaussian 09:  AM64L-G09RevC.01 23-Sep-2011
                19-Sep-2024 
 ******************************************
 %nprocshared=4
 Will use up to    4 processors via shared memory.
 %mem=100mw
 --------------------------------------------------
 # mPW1PW91/6-31+G** nmr scrf=(pcm,solvent=benzene)
 --------------------------------------------------
 1/38=1/1;
 2/12=2,17=6,18=5,40=1/2;
 3/5=1,6=6,7=111,11=2,16=1,25=1,30=1,70=2201,72=12,74=-7/1,2,8,3;
 4//1;
 5/5=2,38=5,53=12/2;
 8/6=1,10=90,11=11/1;
 10/13=100,45=16/2;
 6/7=2,8=2,9=2,10=2,28=1/1;
 99/9=1/99;
 -------
 comment
 -------
 Charge =  0 Multiplicity = 1
 Symbolic Z-Matrix:
 6                    -2.26543   0.08121   0.1684 
 6                    -0.02366  -1.10682  -0.20613 
 6                    -0.05799   1.31372   0.51509 
 6                     0.72318   0.24065  -0.2743 
 6                    -1.52541   1.42479   0.0751 
 6                    -1.49373  -0.97734  -0.63426 
 6                    -3.72306   0.19066  -0.29053 
 8                     0.08663  -1.58534   1.14224 
 6                     2.20752   0.13802   0.17438 
 6                     2.98026   1.43526  -0.12299 
 6                     2.94355  -1.05363  -0.46094 
 1                    -2.25557  -0.2324    1.22228 
 1                     0.46701  -1.81923  -0.88645 
 1                     0.42421   2.29068   0.40151 
 1                    -0.01612   1.06267   1.58307 
 1                     0.7186    0.52955  -1.33896 
 1                    -1.57106   1.78521  -0.96512 
 1                    -2.0408    2.17917   0.68496 
 1                    -1.52597  -0.72297  -1.70469 
 1                    -1.9831   -1.95975  -0.54197 
 1                    -3.78443   0.49833  -1.34274 
 1                    -4.24664  -0.76873  -0.195 
 1                    -4.27181   0.93119   0.30388 
 1                    -0.39986  -2.42269   1.19568 
 1                     2.20745  -0.01939   1.26124 
 1                     2.98785   1.64985  -1.20033 
 1                     2.55595   2.30568   0.38715 
 1                     4.02366   1.34465   0.20139 
 1                     2.89662  -1.01687  -1.55796 
 1                     2.52661  -2.00936  -0.13038 
 1                     4.00292  -1.04191  -0.17845 
 
                          Input orientation:                          
 ---------------------------------------------------------------------
 Center     Atomic      Atomic             Coordinates (Angstroms)
 Number     Number       Type             X           Y           Z
 ---------------------------------------------------------------------
      1          6           0       -2.265426    0.081206    0.168397
      2          6           0       -0.023655   -1.106820   -0.206131
      3          6           0       -0.057987    1.313719    0.515092
      4          6           0        0.723182    0.240653   -0.274295
      5          6           0       -1.525414    1.424789    0.075098
      6          6           0       -1.493733   -0.977344   -0.634259
      7          6           0       -3.723058    0.190663   -0.290531
      8          8           0        0.086633   -1.585344    1.142243
      9          6           0        2.207524    0.138024    0.174382
     10          6           0        2.980255    1.435258   -0.122989
     11          6           0        2.943550   -1.053634   -0.460938
     12          1           0       -2.255571   -0.232398    1.222284
     13          1           0        0.467013   -1.819234   -0.886445
     14          1           0        0.424213    2.290677    0.401509
     15          1           0       -0.016121    1.062674    1.583074
     16          1           0        0.718600    0.529545   -1.338958
     17          1           0       -1.571063    1.785207   -0.965124
     18          1           0       -2.040799    2.179167    0.684956
     19          1           0       -1.525970   -0.722967   -1.704694
     20          1           0       -1.983104   -1.959753   -0.541974
     21          1           0       -3.784427    0.498327   -1.342742
     22          1           0       -4.246642   -0.768732   -0.195000
     23          1           0       -4.271810    0.931190    0.303877
     24          1           0       -0.399860   -2.422694    1.195684
     25          1           0        2.207453   -0.019392    1.261237
     26          1           0        2.987847    1.649849   -1.200328
     27          1           0        2.555945    2.305680    0.387147
     28          1           0        4.023664    1.344649    0.201385
     29          1           0        2.896615   -1.016867   -1.557956
     30          1           0        2.526608   -2.009356   -0.130379
     31          1           0        4.002923   -1.041910   -0.178454
 ---------------------------------------------------------------------
                    Distance matrix (angstroms):
                    1          2          3          4          5
     1  C    0.000000
     2  C    2.564608   0.000000
     3  C    2.551876   2.525936   0.000000
     4  C    3.025422   1.542107   1.544289   0.000000
     5  C    1.536730   2.956926   1.535993   2.565236   0.000000
     6  C    1.536325   1.536615   2.937915   2.554957   2.504882
     7  C    1.532086   3.921246   3.917018   4.446551   2.546839
     8  O    3.042687   1.435013   2.969646   2.397090   3.577484
     9  C    4.473315   2.583135   2.575050   1.554064   3.949740
    10  C    5.425452   3.936057   3.106901   2.558193   4.510033
    11  C    5.368180   2.978600   3.945405   2.576829   5.138244
    12  H    1.099601   2.790418   2.778484   3.366971   2.143696
    13  H    3.491502   1.100507   3.472078   2.164136   3.926578
    14  H    3.488590   3.480345   1.095383   2.179149   2.158090
    15  H    2.832660   2.812119   1.097890   2.161506   2.164043
    16  H    3.373061   2.124130   2.157665   1.103171   2.799395
    17  H    2.161164   3.366654   2.168580   2.850693   1.101838
    18  H    2.172264   3.957350   2.170115   3.509642   1.098469
    19  H    2.168400   2.156382   3.351196   2.834306   2.789358
    20  H    2.179414   2.163267   3.941964   3.498203   3.470646
    21  H    2.182864   4.244030   4.242967   4.639667   2.823427
    22  H    2.186245   4.236513   4.731349   5.071912   3.505648
    23  H    2.183210   4.739242   4.236419   5.075536   2.799763
    24  H    3.287122   1.959117   3.813249   3.242758   4.162416
    25  H    4.605547   2.883316   2.732423   2.151405   4.174552
    26  H    5.650746   4.201999   3.511802   2.823487   4.695411
    27  H    5.314297   4.318735   2.798749   2.839166   4.186984
    28  H    6.414829   4.749375   4.093806   3.512586   5.551093
    29  H    5.552722   3.219239   4.296374   2.820098   5.308756
    30  H    5.236727   2.706317   4.259060   2.887144   5.315492
    31  H    6.377609   4.027196   4.745628   3.522904   6.058994
                    6          7          8          9         10
     6  C    0.000000
     7  C    2.540134   0.000000
     8  O    2.454217   4.440809   0.000000
     9  C    3.949335   5.949010   2.899126   0.000000
    10  C    5.108680   6.819933   4.370114   1.538947   0.000000
    11  C    4.441322   6.783876   3.318867   1.537990   2.511999
    12  H    2.140583   2.149676   2.706065   4.599405   5.657271
    13  H    2.148698   4.685242   2.077250   2.825879   4.182221
    14  H    3.928269   4.699876   3.960579   2.804585   2.745941
    15  H    3.355827   4.244076   2.686427   2.789980   3.468103
    16  H    2.767983   4.576283   3.320918   2.158792   2.722862
    17  H    2.783368   2.762015   4.306921   4.276611   4.641783
    18  H    3.464559   2.781316   4.348174   4.740802   5.139763
    19  H    1.100717   2.767991   3.383671   4.267459   5.240781
    20  H    1.101421   2.777580   2.694546   4.740801   6.027983
    21  H    2.815463   1.097985   5.049945   6.191523   6.937331
    22  H    2.795528   1.097135   4.607857   6.528010   7.555845
    23  H    3.498616   1.096736   5.102139   6.528985   7.282084
    24  H    2.575711   4.481307   0.969890   3.794573   5.296024
    25  H    4.267242   6.133765   2.638985   1.098196   2.151583
    26  H    5.225623   6.927712   4.936715   2.187315   1.098529
    27  H    5.312383   6.660212   4.669876   2.205765   1.094492
    28  H    6.044139   7.847634   4.997028   2.180605   1.096417
    29  H    4.486639   6.847230   3.938304   2.193083   2.842366
    30  H    4.181158   6.627523   2.784391   2.192244   3.474366
    31  H    5.515900   7.824486   4.168560   2.177199   2.680539
                   11         12         13         14         15
    11  C    0.000000
    12  H    5.526167   0.000000
    13  H    2.626868   3.791734   0.000000
    14  H    4.274961   3.771050   4.307206   0.000000
    15  H    4.173296   2.611995   3.825877   1.760108   0.000000
    16  H    2.868410   3.998276   2.405167   2.493487   3.059790
    17  H    5.356767   3.053528   4.141490   2.470691   3.071353
    18  H    6.050439   2.480019   4.974498   2.483759   2.480422
    19  H    4.651116   3.056170   2.417295   4.161893   4.034548
    20  H    5.009944   2.484069   2.478201   4.975087   4.185680
    21  H    6.960735   3.074202   4.863542   4.895670   4.804063
    22  H    7.200747   2.502141   4.878544   5.615398   4.940942
    23  H    7.522359   2.502524   5.606973   4.889823   4.445731
    24  H    3.974558   2.870848   2.334715   4.850327   3.527764
    25  H    2.139482   4.468274   3.298651   3.042285   2.493738
    26  H    2.803120   6.074976   4.299728   3.090107   4.137140
    27  H    3.486327   5.503633   4.795893   2.131833   3.096906
    28  H    2.712394   6.554243   4.882960   3.727072   4.278836
    29  H    1.098637   5.906788   2.645314   4.570790   4.761784
    30  H    1.093853   5.277927   2.202207   4.815937   4.340364
    31  H    1.096451   6.464219   3.688922   4.924394   4.866721
                   16         17         18         19         20
    16  H    0.000000
    17  H    2.637991   0.000000
    18  H    3.798916   1.760290   0.000000
    19  H    2.596275   2.615327   3.794451   0.000000
    20  H    3.759121   3.791248   4.317331   1.757990   0.000000
    21  H    4.503137   2.587979   3.158642   2.592913   3.150897
    22  H    5.258117   3.778150   3.785522   3.111804   2.581187
    23  H    5.269195   3.103827   2.584585   3.782886   3.783013
    24  H    4.048590   4.873114   4.912296   3.545333   2.395920
    25  H    3.046150   4.742409   4.818029   4.819773   4.957554
    26  H    2.534518   4.566980   5.396458   5.124372   6.178431
    27  H    3.083818   4.373983   4.608118   5.496411   6.297631
    28  H    3.736375   5.731998   6.140682   6.221464   6.895862
    29  H    2.680131   5.306903   6.294708   4.434768   5.072762
    30  H    3.342989   5.646806   6.250576   4.533945   4.528728
    31  H    3.821390   6.299267   6.902709   5.744544   6.066886
                   21         22         23         24         25
    21  H    0.000000
    22  H    1.770986   0.000000
    23  H    1.770951   1.771792   0.000000
    24  H    5.141135   4.412179   5.199601   0.000000
    25  H    6.553729   6.658639   6.618232   3.546581   0.000000
    26  H    6.870952   7.694027   7.448605   5.814038   3.074847
    27  H    6.816110   7.487730   6.965228   5.634540   2.508274
    28  H    8.004179   8.545260   8.306404   5.894834   2.506495
    29  H    6.854083   7.276355   7.658176   4.519472   3.068835
    30  H    6.898367   6.886235   7.419830   3.239368   2.449166
    31  H    8.023136   8.254103   8.520386   4.814490   2.518326
                   26         27         28         29         30
    26  H    0.000000
    27  H    1.771082   0.000000
    28  H    1.769425   1.764168   0.000000
    29  H    2.692136   3.865074   3.153138   0.000000
    30  H    3.840223   4.346059   3.687898   1.777615   0.000000
    31  H    3.052896   3.690530   2.416686   1.768494   1.765721
                   31
    31  H    0.000000
 Stoichiometry    C10H20O
 Framework group  C1[X(C10H20O)]
 Deg. of freedom    87
 Full point group                 C1      NOp   1
 Largest Abelian subgroup         C1      NOp   1
 Largest concise Abelian subgroup C1      NOp   1
                         Standard orientation:                         
 ---------------------------------------------------------------------
 Center     Atomic      Atomic             Coordinates (Angstroms)
 Number     Number       Type             X           Y           Z
 ---------------------------------------------------------------------
      1          6           0       -2.265426    0.081206    0.168397
      2          6           0       -0.023655   -1.106820   -0.206131
      3          6           0       -0.057987    1.313719    0.515092
      4          6           0        0.723182    0.240653   -0.274295
      5          6           0       -1.525414    1.424789    0.075098
      6          6           0       -1.493733   -0.977344   -0.634259
      7          6           0       -3.723058    0.190663   -0.290531
      8          8           0        0.086633   -1.585344    1.142243
      9          6           0        2.207524    0.138024    0.174382
     10          6           0        2.980255    1.435258   -0.122989
     11          6           0        2.943550   -1.053634   -0.460938
     12          1           0       -2.255571   -0.232398    1.222284
     13          1           0        0.467013   -1.819234   -0.886445
     14          1           0        0.424213    2.290677    0.401509
     15          1           0       -0.016121    1.062674    1.583074
     16          1           0        0.718600    0.529545   -1.338958
     17          1           0       -1.571063    1.785207   -0.965124
     18          1           0       -2.040799    2.179167    0.684956
     19          1           0       -1.525970   -0.722967   -1.704694
     20          1           0       -1.983104   -1.959753   -0.541974
     21          1           0       -3.784427    0.498327   -1.342742
     22          1           0       -4.246642   -0.768732   -0.195000
     23          1           0       -4.271810    0.931190    0.303877
     24          1           0       -0.399860   -2.422694    1.195684
     25          1           0        2.207453   -0.019392    1.261237
     26          1           0        2.987847    1.649849   -1.200328
     27          1           0        2.555945    2.305680    0.387147
     28          1           0        4.023664    1.344649    0.201385
     29          1           0        2.896615   -1.016867   -1.557956
     30          1           0        2.526608   -2.009356   -0.130379
     31          1           0        4.002923   -1.041910   -0.178454
 ---------------------------------------------------------------------
 Rotational constants (GHZ):      2.0019017      0.6725888      0.5657111
 Standard basis: 6-31+G(d,p) (6D, 7F)
 There are   309 symmetry adapted basis functions of A   symmetry.
 Integral buffers will be    131072 words long.
 Raffenetti 2 integral format.
 Two-electron integral symmetry is turned on.
   309 basis functions,   492 primitive gaussians,   309 cartesian basis functions
    44 alpha electrons       44 beta electrons
       nuclear repulsion energy       690.9280674338 Hartrees.
 NAtoms=   31 NActive=   31 NUniq=   31 SFac= 1.00D+00 NAtFMM=   60 NAOKFM=F Big=F
 ------------------------------------------------------------------------------
 Polarizable Continuum Model (PCM)
 =================================
 Model                : PCM.
 Atomic radii         : UFF (Universal Force Field).
 Polarization charges : Total charges.
 Charge compensation  : None.
 Solution method      : Matrix inversion.
 Cavity type          : Scaled VdW (van der Waals Surface) (Alpha=1.100).
 Cavity algorithm     : GePol (No added spheres)
                        Default sphere list used, NSphG=   31.
                        Lebedev-Laikov grids with approx.  5.0 points / Ang**2.
                        Smoothing algorithm: Karplus/York (Gamma=1.0000).
                        Polarization charges: spherical gaussians, with
                                              point-specific exponents (IZeta= 3).
                        Self-potential: point-specific (ISelfS= 7).
                        Self-field    : sphere-specific E.n sum rule (ISelfD= 2).
 Solvent              : Benzene, Eps=   2.270600 Eps(inf)=   2.253301
 ------------------------------------------------------------------------------
 One-electron integrals computed using PRISM.
 NBasis=   309 RedAO= T  NBF=   309
 NBsUse=   309 1.00D-06 NBFU=   309
 Harris functional with IExCor=  908 diagonalized for initial guess.
 ExpMin= 4.38D-02 ExpMax= 5.48D+03 ExpMxC= 8.25D+02 IAcc=2 IRadAn=         4 AccDes= 0.00D+00
 HarFok:  IExCor=  908 AccDes= 0.00D+00 IRadAn=         4 IDoV= 1
 ScaDFX=  1.000000  1.000000  1.000000  1.000000
 FoFCou: FMM=F IPFlag=           0 FMFlag=      100000 FMFlg1=           0
         NFxFlg=           0 DoJE=T BraDBF=F KetDBF=T FulRan=T
         Omega=  0.000000  0.000000  1.000000  0.000000  0.000000 ICntrl=     500 IOpCl=  0
         NMat0=    1 NMatS0=    1 NMatT0=    0 NMatD0=    1 NMtDS0=    0 NMtDT0=    0
         I1Cent=           4 NGrid=           0.
 Petite list used in FoFCou.
 Initial guess orbital symmetries:
       Occupied  (A) (A) (A) (A) (A) (A) (A) (A) (A) (A) (A) (A)
                 (A) (A) (A) (A) (A) (A) (A) (A) (A) (A) (A) (A)
                 (A) (A) (A) (A) (A) (A) (A) (A) (A) (A) (A) (A)
                 (A) (A) (A) (A) (A) (A) (A) (A)
       Virtual   (A) (A) (A) (A) (A) (A) (A) (A) (A) (A) (A) (A)
                 (A) (A) (A) (A) (A) (A) (A) (A) (A) (A) (A) (A)
                 (A) (A) (A) (A) (A) (A) (A) (A) (A) (A) (A) (A)
                 (A) (A) (A) (A) (A) (A) (A) (A) (A) (A) (A) (A)
                 (A) (A) (A) (A) (A) (A) (A) (A) (A) (A) (A) (A)
                 (A) (A) (A) (A) (A) (A) (A) (A) (A) (A) (A) (A)
                 (A) (A) (A) (A) (A) (A) (A) (A) (A) (A) (A) (A)
                 (A) (A) (A) (A) (A) (A) (A) (A) (A) (A) (A) (A)
                 (A) (A) (A) (A) (A) (A) (A) (A) (A) (A) (A) (A)
                 (A) (A) (A) (A) (A) (A) (A) (A) (A) (A) (A) (A)
                 (A) (A) (A) (A) (A) (A) (A) (A) (A) (A) (A) (A)
                 (A) (A) (A) (A) (A) (A) (A) (A) (A) (A) (A) (A)
                 (A) (A) (A) (A) (A) (A) (A) (A) (A) (A) (A) (A)
                 (A) (A) (A) (A) (A) (A) (A) (A) (A) (A) (A) (A)
                 (A) (A) (A) (A) (A) (A) (A) (A) (A) (A) (A) (A)
                 (A) (A) (A) (A) (A) (A) (A) (A) (A) (A) (A) (A)
                 (A) (A) (A) (A) (A) (A) (A) (A) (A) (A) (A) (A)
                 (A) (A) (A) (A) (A) (A) (A) (A) (A) (A) (A) (A)
                 (A) (A) (A) (A) (A) (A) (A) (A) (A) (A) (A) (A)
                 (A) (A) (A) (A) (A) (A) (A) (A) (A) (A) (A) (A)
                 (A) (A) (A) (A) (A) (A) (A) (A) (A) (A) (A) (A)
                 (A) (A) (A) (A) (A) (A) (A) (A) (A) (A) (A) (A)
                 (A)
 The electronic state of the initial guess is 1-A.
 Requested convergence on RMS density matrix=1.00D-08 within 128 cycles.
 Requested convergence on MAX density matrix=1.00D-06.
 Requested convergence on             energy=1.00D-06.
 No special actions if energy rises.
 Error on total polarization charges =  0.00937
 SCF Done:  E(RmPW1PW91) =  -468.284456831     A.U. after   12 cycles
             Convg  =    0.7235D-08             -V/T =  2.0099
 Range of M.O.s used for correlation:     1   309
 NBasis=   309 NAE=    44 NBE=    44 NFC=     0 NFV=     0
 NROrb=    309 NOA=    44 NOB=    44 NVA=   265 NVB=   265

 **** Warning!!: The largest alpha MO coefficient is  0.91532384D+02

 NEqPCM:  Using equilibrium solvation (IEInf=0, Eps=   2.2706, EpsInf=   2.2533)
          Differentiating once with respect to magnetic field using GIAOs.
          Electric field/nuclear overlap derivatives assumed to be zero.
 FoFCou: FMM=F IPFlag=           0 FMFlag=    10101102 FMFlg1=           0
         NFxFlg=    40000000 DoJE=F BraDBF=F KetDBF=T FulRan=T
         Omega=  0.000000  0.000000  1.000000  0.000000  0.000000 ICntrl=    6100 IOpCl=  0
         NMat0=    1 NMatS0=    1 NMatT0=    0 NMatD0=    1 NMtDS0=    0 NMtDT0=    0
         I1Cent=           7 NGrid=        1936.
 Symmetry not used in FoFCou.
          There are     3 degrees of freedom in the 1st order CPHF.  IDoFFX=0.
      3 vectors produced by pass  0 Test12= 3.89D-13 3.33D-08 XBig12= 4.46D+01 1.67D+00.
 AX will form     3 AO Fock derivatives at one time.
      3 vectors produced by pass  1 Test12= 3.89D-13 3.33D-08 XBig12= 1.02D-01 6.88D-02.
      3 vectors produced by pass  2 Test12= 3.89D-13 3.33D-08 XBig12= 2.62D-04 5.09D-03.
      3 vectors produced by pass  3 Test12= 3.89D-13 3.33D-08 XBig12= 1.02D-06 1.61D-04.
      3 vectors produced by pass  4 Test12= 3.89D-13 3.33D-08 XBig12= 1.74D-09 7.08D-06.
      3 vectors produced by pass  5 Test12= 3.89D-13 3.33D-08 XBig12= 3.48D-12 3.20D-07.
 Inverted reduced A of dimension    18 with in-core refinement.
 Calculating GIAO nuclear magnetic shielding tensors.
 SCF GIAO Magnetic shielding tensor (ppm):
      1  C    Isotropic =   167.5678   Anisotropy =    14.0258
   XX=   169.7893   YX=     3.7908   ZX=     3.4037
   XY=     7.4793   YY=   169.1532   ZY=     0.0123
   XZ=     9.6619   YZ=    -0.5946   ZZ=   163.7609
   Eigenvalues:   158.4303   167.3549   176.9184
      2  C    Isotropic =   126.7481   Anisotropy =    47.1646
   XX=   116.7888   YX=     1.3499   ZX=     3.6431
   XY=     0.3021   YY=   113.8437   ZY=   -21.3552
   XZ=    -0.5881   YZ=   -17.5817   ZZ=   149.6117
   Eigenvalues:   105.1303   116.9227   158.1911
      3  C    Isotropic =   168.6215   Anisotropy =    20.2246
   XX=   180.8290   YX=    -1.2177   ZX=     3.0649
   XY=    -9.3930   YY=   159.7094   ZY=     4.1032
   XZ=    -0.3032   YZ=     2.9014   ZZ=   165.3261
   Eigenvalues:   156.8174   166.9425   182.1045
      4  C    Isotropic =   146.8725   Anisotropy =    16.1267
   XX=   154.7973   YX=     2.8321   ZX=    -0.1568
   XY=    -1.9436   YY=   135.7211   ZY=   -10.6823
   XZ=     7.3336   YZ=    -6.5471   ZZ=   150.0991
   Eigenvalues:   131.5280   151.4659   157.6237
      5  C    Isotropic =   159.4089   Anisotropy =    20.9552
   XX=   164.8549   YX=     7.1590   ZX=     5.1504
   XY=    12.7781   YY=   161.2382   ZY=    -1.4575
   XZ=     0.9479   YZ=     0.5651   ZZ=   152.1335
   Eigenvalues:   150.0861   154.7615   173.3790
      6  C    Isotropic =   150.5730   Anisotropy =    25.8193
   XX=   162.5410   YX=   -11.0323   ZX=     7.6939
   XY=   -10.6853   YY=   143.9332   ZY=    -3.2833
   XZ=    -4.9383   YZ=    -2.0383   ZZ=   145.2446
   Eigenvalues:   138.4260   145.5071   167.7858
      7  C    Isotropic =   173.0974   Anisotropy =    37.9335
   XX=   196.5924   YX=    -0.8181   ZX=     5.1758
   XY=    -2.5907   YY=   163.2761   ZY=     0.2944
   XZ=    11.2138   YZ=     0.9595   ZZ=   159.4238
   Eigenvalues:   157.5334   163.3724   198.3864
      8  O    Isotropic =   288.8185   Anisotropy =    86.9439
   XX=   280.4769   YX=    32.7608   ZX=     1.6454
   XY=    35.0903   YY=   323.0666   ZY=   -37.3286
   XZ=    12.0287   YZ=   -15.6502   ZZ=   262.9121
   Eigenvalues:   241.4944   278.1800   346.7811
      9  C    Isotropic =   163.5475   Anisotropy =    18.9623
   XX=   174.8644   YX=    -7.1212   ZX=    -0.7056
   XY=    -2.0750   YY=   159.9626   ZY=     2.1042
   XZ=     0.6136   YZ=     2.2228   ZZ=   155.8154
   Eigenvalues:   154.7120   159.7414   176.1890
     10  C    Isotropic =   174.3309   Anisotropy =    32.8131
   XX=   173.1414   YX=    14.4993   ZX=    -1.5229
   XY=    12.3287   YY=   186.6810   ZY=    -3.2752
   XZ=    -2.0694   YZ=    -9.6977   ZZ=   163.1704
   Eigenvalues:   161.0303   165.7561   196.2063
     11  C    Isotropic =   175.2524   Anisotropy =    29.7792
   XX=   172.5124   YX=   -12.4197   ZX=    -5.2443
   XY=    -9.3139   YY=   184.7883   ZY=     7.0162
   XZ=    -4.0924   YZ=    11.3609   ZZ=   168.4564
   Eigenvalues:   164.3147   166.3372   195.1052
     12  H    Isotropic =    29.5767   Anisotropy =     5.6051
   XX=    30.2906   YX=    -0.6031   ZX=    -1.1841
   XY=    -0.7314   YY=    26.1737   ZY=    -2.4088
   XZ=    -0.9434   YZ=    -2.4004   ZZ=    32.2658
   Eigenvalues:    25.1495    30.2671    33.3134
     13  H    Isotropic =    27.3883   Anisotropy =     4.8820
   XX=    28.8144   YX=    -1.0347   ZX=    -0.5089
   XY=    -1.1471   YY=    26.2341   ZY=     1.8534
   XZ=    -1.6559   YZ=     3.4417   ZZ=    27.1165
   Eigenvalues:    23.9872    27.5347    30.6430
     14  H    Isotropic =    29.8814   Anisotropy =     8.7997
   XX=    33.2238   YX=     2.5126   ZX=    -0.4620
   XY=     2.0606   YY=    33.6055   ZY=     1.1464
   XZ=     0.1054   YZ=     1.0894   ZZ=    22.8148
   Eigenvalues:    22.6835    31.2128    35.7478
     15  H    Isotropic =    29.9749   Anisotropy =     5.9299
   XX=    29.1209   YX=    -0.9506   ZX=     0.7615
   XY=    -0.2701   YY=    27.3352   ZY=     1.9750
   XZ=     0.1955   YZ=     1.4230   ZZ=    33.4687
   Eigenvalues:    26.6874    29.3092    33.9282
     16  H    Isotropic =    30.7497   Anisotropy =     4.3761
   XX=    31.7375   YX=     0.3685   ZX=    -0.7262
   XY=     0.6444   YY=    27.8993   ZY=    -1.6746
   XZ=    -0.7634   YZ=    -2.0931   ZZ=    32.6124
   Eigenvalues:    27.2266    31.3554    33.6671
     17  H    Isotropic =    30.6133   Anisotropy =     6.8685
   XX=    30.7712   YX=    -0.2410   ZX=     1.9416
   XY=    -0.4751   YY=    30.7040   ZY=    -4.3501
   XZ=     1.2697   YZ=    -4.0910   ZZ=    30.3647
   Eigenvalues:    26.1235    30.5241    35.1923
     18  H    Isotropic =    29.9353   Anisotropy =     8.9362
   XX=    30.9785   YX=    -2.3780   ZX=    -1.2235
   XY=    -2.6788   YY=    32.4176   ZY=     3.9680
   XZ=    -0.8463   YZ=     3.9439   ZZ=    26.4100
   Eigenvalues:    24.4400    29.4733    35.8928
     19  H    Isotropic =    30.4196   Anisotropy =     6.3800
   XX=    30.2804   YX=    -0.1893   ZX=     1.8736
   XY=    -0.0430   YY=    27.1664   ZY=     1.4946
   XZ=     1.4007   YZ=     1.3349   ZZ=    33.8121
   Eigenvalues:    26.8155    29.7705    34.6729
     20  H    Isotropic =    30.0646   Anisotropy =     7.4145
   XX=    30.4955   YX=     1.8369   ZX=     0.5413
   XY=     1.4393   YY=    34.0186   ZY=     1.6783
   XZ=     1.4203   YZ=     1.4009   ZZ=    25.6796
   Eigenvalues:    25.3095    29.8767    35.0076
     21  H    Isotropic =    31.0491   Anisotropy =     8.5309
   XX=    31.6894   YX=    -1.1223   ZX=     3.8420
   XY=    -0.7954   YY=    27.8138   ZY=    -1.8284
   XZ=     3.0713   YZ=    -1.8919   ZZ=    33.6442
   Eigenvalues:    27.2700    29.1410    36.7364
     22  H    Isotropic =    30.7061   Anisotropy =    10.6100
   XX=    34.6230   YX=     5.0904   ZX=    -0.0514
   XY=     3.8825   YY=    31.3981   ZY=    -0.7166
   XZ=     0.2188   YZ=     0.0281   ZZ=    26.0971
   Eigenvalues:    26.0462    28.2926    37.7794
     23  H    Isotropic =    30.5597   Anisotropy =    10.5905
   XX=    34.6412   YX=    -4.2386   ZX=    -2.9081
   XY=    -3.1926   YY=    29.2382   ZY=     2.7536
   XZ=    -1.9024   YZ=     2.1127   ZZ=    27.7997
   Eigenvalues:    25.9635    28.0956    37.6200
     24  H    Isotropic =    31.3694   Anisotropy =    18.9127
   XX=    27.5279   YX=     6.9642   ZX=     0.1999
   XY=     7.1232   YY=    39.1872   ZY=    -4.9004
   XZ=    -0.6767   YZ=    -5.7444   ZZ=    27.3930
   Eigenvalues:    22.9176    27.2127    43.9778
     25  H    Isotropic =    29.7782   Anisotropy =     5.0487
   XX=    29.0786   YX=     0.5132   ZX=     0.5539
   XY=     0.7040   YY=    27.3385   ZY=    -1.0611
   XZ=     0.3627   YZ=    -1.0754   ZZ=    32.9174
   Eigenvalues:    26.9234    29.2672    33.1440
     26  H    Isotropic =    31.1099   Anisotropy =     8.4258
   XX=    29.6991   YX=     1.9005   ZX=    -2.3290
   XY=     1.9648   YY=    30.3753   ZY=    -3.9059
   XZ=    -1.7645   YZ=    -3.1507   ZZ=    33.2553
   Eigenvalues:    27.7769    28.8258    36.7271
     27  H    Isotropic =    30.2641   Anisotropy =     8.5788
   XX=    30.3815   YX=     1.3772   ZX=    -1.0854
   XY=     0.0367   YY=    34.8487   ZY=     3.8544
   XZ=    -0.9129   YZ=     2.9425   ZZ=    25.5622
   Eigenvalues:    24.2287    30.5803    35.9833
     28  H    Isotropic =    30.7115   Anisotropy =    10.6775
   XX=    36.4641   YX=     1.9621   ZX=     2.5762
   XY=     3.2870   YY=    28.9911   ZY=     0.3910
   XZ=     2.3108   YZ=     0.3622   ZZ=    26.6794
   Eigenvalues:    26.0787    28.2260    37.8298
     29  H    Isotropic =    31.0612   Anisotropy =     8.3773
   XX=    29.8227   YX=    -1.0249   ZX=    -2.3278
   XY=    -1.1769   YY=    28.4733   ZY=     2.8190
   XZ=    -1.9814   YZ=     2.3577   ZZ=    34.8875
   Eigenvalues:    27.4963    29.0412    36.6460
     30  H    Isotropic =    30.0509   Anisotropy =     8.3710
   XX=    30.0752   YX=    -0.8233   ZX=    -1.4868
   XY=     0.0067   YY=    35.5229   ZY=    -1.3821
   XZ=    -1.4117   YZ=    -0.6652   ZZ=    24.5544
   Eigenvalues:    24.0928    30.4282    35.6316
     31  H    Isotropic =    30.7643   Anisotropy =    10.5071
   XX=    36.6571   YX=    -2.3983   ZX=     1.5215
   XY=    -3.4762   YY=    29.1903   ZY=     0.3203
   XZ=     0.8828   YZ=     0.2987   ZZ=    26.4454
   Eigenvalues:    26.1233    28.4005    37.7690
 End of Minotr Frequency-dependent properties file   721 does not exist.
 End of Minotr Frequency-dependent properties file   722 does not exist.

 **********************************************************************

            Population analysis using the SCF density.

 **********************************************************************

 Orbital symmetries:
       Occupied  (A) (A) (A) (A) (A) (A) (A) (A) (A) (A) (A) (A)
                 (A) (A) (A) (A) (A) (A) (A) (A) (A) (A) (A) (A)
                 (A) (A) (A) (A) (A) (A) (A) (A) (A) (A) (A) (A)
                 (A) (A) (A) (A) (A) (A) (A) (A)
       Virtual   (A) (A) (A) (A) (A) (A) (A) (A) (A) (A) (A) (A)
                 (A) (A) (A) (A) (A) (A) (A) (A) (A) (A) (A) (A)
                 (A) (A) (A) (A) (A) (A) (A) (A) (A) (A) (A) (A)
                 (A) (A) (A) (A) (A) (A) (A) (A) (A) (A) (A) (A)
                 (A) (A) (A) (A) (A) (A) (A) (A) (A) (A) (A) (A)
                 (A) (A) (A) (A) (A) (A) (A) (A) (A) (A) (A) (A)
                 (A) (A) (A) (A) (A) (A) (A) (A) (A) (A) (A) (A)
                 (A) (A) (A) (A) (A) (A) (A) (A) (A) (A) (A) (A)
                 (A) (A) (A) (A) (A) (A) (A) (A) (A) (A) (A) (A)
                 (A) (A) (A) (A) (A) (A) (A) (A) (A) (A) (A) (A)
                 (A) (A) (A) (A) (A) (A) (A) (A) (A) (A) (A) (A)
                 (A) (A) (A) (A) (A) (A) (A) (A) (A) (A) (A) (A)
                 (A) (A) (A) (A) (A) (A) (A) (A) (A) (A) (A) (A)
                 (A) (A) (A) (A) (A) (A) (A) (A) (A) (A) (A) (A)
                 (A) (A) (A) (A) (A) (A) (A) (A) (A) (A) (A) (A)
                 (A) (A) (A) (A) (A) (A) (A) (A) (A) (A) (A) (A)
                 (A) (A) (A) (A) (A) (A) (A) (A) (A) (A) (A) (A)
                 (A) (A) (A) (A) (A) (A) (A) (A) (A) (A) (A) (A)
                 (A) (A) (A) (A) (A) (A) (A) (A) (A) (A) (A) (A)
                 (A) (A) (A) (A) (A) (A) (A) (A) (A) (A) (A) (A)
                 (A) (A) (A) (A) (A) (A) (A) (A) (A) (A) (A) (A)
                 (A) (A) (A) (A) (A) (A) (A) (A) (A) (A) (A) (A)
                 (A)
 The electronic state is 1-A.
 Alpha  occ. eigenvalues --  -19.24422 -10.29372 -10.24623 -10.24621 -10.24575
 Alpha  occ. eigenvalues --  -10.24184 -10.23675 -10.23426 -10.23296 -10.22930
 Alpha  occ. eigenvalues --  -10.22790  -1.04929  -0.85683  -0.82045  -0.76423
 Alpha  occ. eigenvalues --   -0.75485  -0.69815  -0.69405  -0.62853  -0.61482
 Alpha  occ. eigenvalues --   -0.57470  -0.56674  -0.51360  -0.48546  -0.47192
 Alpha  occ. eigenvalues --   -0.45205  -0.44754  -0.44094  -0.42711  -0.41020
 Alpha  occ. eigenvalues --   -0.40117  -0.39630  -0.38975  -0.38718  -0.36853
 Alpha  occ. eigenvalues --   -0.35683  -0.35122  -0.34432  -0.33847  -0.32458
 Alpha  occ. eigenvalues --   -0.32261  -0.31113  -0.29587  -0.27879
 Alpha virt. eigenvalues --    0.00477   0.01920   0.02134   0.02633   0.03549
 Alpha virt. eigenvalues --    0.04316   0.04905   0.05260   0.05717   0.06722
 Alpha virt. eigenvalues --    0.06962   0.07380   0.08066   0.08771   0.09593
 Alpha virt. eigenvalues --    0.09822   0.10550   0.10629   0.11043   0.11335
 Alpha virt. eigenvalues --    0.11439   0.13149   0.13729   0.14472   0.14724
 Alpha virt. eigenvalues --    0.15211   0.16136   0.16958   0.17535   0.18001
 Alpha virt. eigenvalues --    0.18528   0.18836   0.19168   0.19798   0.19850
 Alpha virt. eigenvalues --    0.20686   0.21341   0.21831   0.21985   0.22616
 Alpha virt. eigenvalues --    0.22752   0.23645   0.23859   0.24194   0.24653
 Alpha virt. eigenvalues --    0.25320   0.26047   0.26238   0.27004   0.27236
 Alpha virt. eigenvalues --    0.27590   0.28054   0.28708   0.29536   0.29915
 Alpha virt. eigenvalues --    0.30952   0.31435   0.32248   0.32959   0.33286
 Alpha virt. eigenvalues --    0.34137   0.34891   0.35687   0.36505   0.37126
 Alpha virt. eigenvalues --    0.37867   0.38574   0.39678   0.41122   0.41674
 Alpha virt. eigenvalues --    0.43033   0.43947   0.44695   0.49637   0.53602
 Alpha virt. eigenvalues --    0.63641   0.63854   0.65741   0.66376   0.67220
 Alpha virt. eigenvalues --    0.67905   0.69080   0.69720   0.71690   0.73134
 Alpha virt. eigenvalues --    0.73871   0.74051   0.75134   0.76341   0.76653
 Alpha virt. eigenvalues --    0.77711   0.79028   0.80042   0.81629   0.83895
 Alpha virt. eigenvalues --    0.86165   0.87573   0.88800   0.89470   0.90140
 Alpha virt. eigenvalues --    0.96730   0.97224   1.00016   1.00168   1.00302
 Alpha virt. eigenvalues --    1.01248   1.01543   1.02669   1.03875   1.04664
 Alpha virt. eigenvalues --    1.06611   1.07409   1.09048   1.09728   1.10738
 Alpha virt. eigenvalues --    1.13600   1.15482   1.16124   1.16325   1.17099
 Alpha virt. eigenvalues --    1.17554   1.18723   1.19757   1.21109   1.21867
 Alpha virt. eigenvalues --    1.23673   1.25669   1.27826   1.32316   1.33488
 Alpha virt. eigenvalues --    1.35352   1.38035   1.39814   1.43775   1.45893
 Alpha virt. eigenvalues --    1.48825   1.49722   1.51738   1.54795   1.57870
 Alpha virt. eigenvalues --    1.59699   1.60990   1.62713   1.64412   1.65329
 Alpha virt. eigenvalues --    1.69978   1.70068   1.73424   1.76492   1.78694
 Alpha virt. eigenvalues --    1.83305   1.85536   1.86819   1.87551   1.88629
 Alpha virt. eigenvalues --    1.89510   1.91150   1.92748   1.94591   1.95257
 Alpha virt. eigenvalues --    1.96450   1.97414   2.00363   2.01892   2.04267
 Alpha virt. eigenvalues --    2.05104   2.05973   2.06272   2.07738   2.08378
 Alpha virt. eigenvalues --    2.09853   2.11298   2.12325   2.13094   2.14263
 Alpha virt. eigenvalues --    2.15488   2.16631   2.18358   2.18677   2.19516
 Alpha virt. eigenvalues --    2.20790   2.21927   2.24174   2.28746   2.29127
 Alpha virt. eigenvalues --    2.31990   2.33600   2.35069   2.36731   2.37847
 Alpha virt. eigenvalues --    2.39163   2.39475   2.41685   2.43313   2.43777
 Alpha virt. eigenvalues --    2.47105   2.48666   2.51979   2.55899   2.58597
 Alpha virt. eigenvalues --    2.60434   2.61348   2.62924   2.63287   2.66618
 Alpha virt. eigenvalues --    2.68189   2.69357   2.70781   2.72893   2.73966
 Alpha virt. eigenvalues --    2.75599   2.76076   2.77741   2.78624   2.79125
 Alpha virt. eigenvalues --    2.81010   2.83300   2.83495   2.85526   2.86352
 Alpha virt. eigenvalues --    2.86973   2.89143   2.91237   2.91980   2.93148
 Alpha virt. eigenvalues --    2.93740   2.94626   2.95309   2.96631   2.99734
 Alpha virt. eigenvalues --    3.01655   3.03028   3.07956   3.11240   3.29080
 Alpha virt. eigenvalues --    3.29410   3.31000   3.35788   3.37567   3.38246
 Alpha virt. eigenvalues --    3.40623   3.42367   3.48789   3.49057   3.50009
 Alpha virt. eigenvalues --    3.50750   3.53254   3.53853   3.55121   3.56363
 Alpha virt. eigenvalues --    3.59143   3.59338   3.62420   3.64973   4.35159
 Alpha virt. eigenvalues --    4.43722   4.45085   4.53320   4.59646   4.60746
 Alpha virt. eigenvalues --    4.63998   4.73116   4.84133   4.89202   4.92187
          Condensed to atoms (all electrons):
              1          2          3          4          5          6
     1  C    7.877465   0.467849   0.131335  -0.141318  -0.344051  -0.869109
     2  C    0.467849   8.051772   0.357465  -1.409589  -0.177757  -1.468172
     3  C    0.131335   0.357465   6.325320  -0.642319  -0.102345  -0.408378
     4  C   -0.141318  -1.409589  -0.642319   8.457649   0.120018   0.595760
     5  C   -0.344051  -0.177757  -0.102345   0.120018   5.958370   0.089011
     6  C   -0.869109  -1.468172  -0.408378   0.595760   0.089011   7.204121
     7  C   -1.088575  -0.575506  -0.311910   0.160588   0.222790   0.698774
     8  O   -0.045375  -0.106680  -0.054401  -0.119805  -0.000927   0.147695
     9  C    0.017450   0.781812   0.417293  -1.723761  -0.129555  -0.250030
    10  C    0.007872  -0.200850  -0.094759   0.359601   0.052999   0.056497
    11  C   -0.033664  -0.028028  -0.000962   0.179870  -0.034252  -0.002371
    12  H    0.312474  -0.038756   0.006977   0.009119  -0.016650   0.003852
    13  H    0.018047   0.055495  -0.017174   0.167319  -0.001591   0.117905
    14  H    0.030778   0.030685   0.321179  -0.036748  -0.005506  -0.004673
    15  H   -0.019822  -0.023972   0.458659  -0.084361  -0.037076   0.009484
    16  H   -0.008427  -0.033093  -0.008991   0.293283  -0.001097   0.001328
    17  H   -0.088706  -0.003541  -0.054761   0.015736   0.445971  -0.003317
    18  H   -0.034664  -0.014992  -0.030563   0.042501   0.341203   0.040932
    19  H   -0.099760  -0.090748   0.022126   0.029550  -0.017621   0.455635
    20  H   -0.038510   0.024397  -0.006418   0.014613   0.043441   0.307687
    21  H   -0.102296  -0.007949   0.004829   0.004085  -0.000656   0.012177
    22  H   -0.124978   0.004095  -0.012280   0.001051   0.031700  -0.006876
    23  H   -0.144274  -0.017891  -0.003243   0.002444   0.002051   0.041666
    24  H   -0.026426   0.086179  -0.003117   0.038674   0.015527  -0.061662
    25  H   -0.001369  -0.010800   0.019264  -0.106593  -0.002411   0.002615
    26  H   -0.000725  -0.000727   0.012216  -0.025408   0.001494  -0.000069
    27  H    0.001040   0.000836  -0.006810   0.008030   0.001156  -0.001506
    28  H   -0.000164  -0.007964  -0.003274   0.061438   0.001064   0.000609
    29  H   -0.000246  -0.004523   0.006304  -0.016468  -0.001863   0.005473
    30  H   -0.000025   0.017347  -0.000596  -0.021406  -0.001683  -0.002329
    31  H    0.000082  -0.008384  -0.005904   0.062401   0.000467   0.000153
              7          8          9         10         11         12
     1  C   -1.088575  -0.045375   0.017450   0.007872  -0.033664   0.312474
     2  C   -0.575506  -0.106680   0.781812  -0.200850  -0.028028  -0.038756
     3  C   -0.311910  -0.054401   0.417293  -0.094759  -0.000962   0.006977
     4  C    0.160588  -0.119805  -1.723761   0.359601   0.179870   0.009119
     5  C    0.222790  -0.000927  -0.129555   0.052999  -0.034252  -0.016650
     6  C    0.698774   0.147695  -0.250030   0.056497  -0.002371   0.003852
     7  C    6.264210   0.074958  -0.052872   0.011948  -0.006748  -0.014882
     8  O    0.074958   8.434911   0.065974   0.018116  -0.040151   0.009132
     9  C   -0.052872   0.065974   7.591507  -0.377263  -0.304033   0.000867
    10  C    0.011948   0.018116  -0.377263   5.593982  -0.095572   0.000983
    11  C   -0.006748  -0.040151  -0.304033  -0.095572   5.673757   0.001249
    12  H   -0.014882   0.009132   0.000867   0.000983   0.001249   0.555688
    13  H    0.015928  -0.034634  -0.085288   0.016003   0.002316  -0.000072
    14  H    0.002018  -0.001185   0.003888  -0.012988  -0.001869  -0.000009
    15  H    0.001667   0.008033  -0.003802   0.001658   0.002261   0.002973
    16  H    0.003469   0.011871   0.007267   0.000378  -0.007519   0.000084
    17  H   -0.009362   0.000474  -0.003785   0.002140   0.001782   0.005207
    18  H   -0.012327   0.000513  -0.004526  -0.000021   0.000093  -0.004419
    19  H   -0.004153   0.010258  -0.002313   0.001202   0.003869   0.004975
    20  H   -0.009513  -0.017123  -0.000749  -0.000214  -0.000241  -0.003763
    21  H    0.438373   0.000121  -0.000121   0.000117   0.000062   0.004710
    22  H    0.466949  -0.000260  -0.000307  -0.000020  -0.000016  -0.003717
    23  H    0.478718   0.000186  -0.000401   0.000003  -0.000015  -0.003674
    24  H   -0.009063   0.206632  -0.017407  -0.001824   0.007245   0.000207
    25  H   -0.000080   0.008629   0.386120  -0.025391   0.004328   0.000002
    26  H   -0.000009   0.000168  -0.070796   0.426475   0.004530   0.000000
    27  H    0.000018  -0.000114  -0.076387   0.442479  -0.006521   0.000000
    28  H    0.000003   0.000015  -0.160628   0.462746   0.004936   0.000000
    29  H   -0.000098   0.000581  -0.076390  -0.004407   0.437663   0.000000
    30  H   -0.000092   0.001034  -0.072665  -0.008295   0.452792   0.000000
    31  H    0.000016  -0.000102  -0.167875   0.013522   0.462173   0.000000
             13         14         15         16         17         18
     1  C    0.018047   0.030778  -0.019822  -0.008427  -0.088706  -0.034664
     2  C    0.055495   0.030685  -0.023972  -0.033093  -0.003541  -0.014992
     3  C   -0.017174   0.321179   0.458659  -0.008991  -0.054761  -0.030563
     4  C    0.167319  -0.036748  -0.084361   0.293283   0.015736   0.042501
     5  C   -0.001591  -0.005506  -0.037076  -0.001097   0.445971   0.341203
     6  C    0.117905  -0.004673   0.009484   0.001328  -0.003317   0.040932
     7  C    0.015928   0.002018   0.001667   0.003469  -0.009362  -0.012327
     8  O   -0.034634  -0.001185   0.008033   0.011871   0.000474   0.000513
     9  C   -0.085288   0.003888  -0.003802   0.007267  -0.003785  -0.004526
    10  C    0.016003  -0.012988   0.001658   0.000378   0.002140  -0.000021
    11  C    0.002316  -0.001869   0.002261  -0.007519   0.001782   0.000093
    12  H   -0.000072  -0.000009   0.002973   0.000084   0.005207  -0.004419
    13  H    0.632101  -0.000110  -0.000080  -0.003511  -0.000070   0.000014
    14  H   -0.000110   0.567445  -0.030353  -0.004887  -0.004448  -0.002894
    15  H   -0.000080  -0.030353   0.528776   0.004966   0.004586  -0.004136
    16  H   -0.003511  -0.004887   0.004966   0.574172   0.002936  -0.000019
    17  H   -0.000070  -0.004448   0.004586   0.002936   0.555646  -0.030271
    18  H    0.000014  -0.002894  -0.004136  -0.000019  -0.030271   0.555186
    19  H   -0.002093  -0.000035   0.000082   0.001603   0.003558  -0.000023
    20  H   -0.005889   0.000010  -0.000020   0.000025  -0.000023  -0.000141
    21  H   -0.000004   0.000000   0.000002   0.000001   0.003425  -0.000164
    22  H   -0.000003   0.000002   0.000001   0.000000  -0.000023   0.000010
    23  H    0.000002  -0.000005  -0.000001   0.000000  -0.000226   0.002818
    24  H   -0.007522   0.000007  -0.000223  -0.000273   0.000001  -0.000007
    25  H    0.000042  -0.000211   0.003786   0.005295   0.000003  -0.000001
    26  H    0.000013   0.000158   0.000057   0.004189   0.000003   0.000000
    27  H    0.000001   0.000769   0.000212  -0.000296   0.000013   0.000008
    28  H   -0.000003   0.000002  -0.000027   0.000021   0.000000   0.000000
    29  H   -0.000510  -0.000001   0.000004   0.003182   0.000000   0.000000
    30  H   -0.001377   0.000002   0.000003  -0.000011   0.000000   0.000000
    31  H    0.000173  -0.000002  -0.000001  -0.000047   0.000000   0.000000
             19         20         21         22         23         24
     1  C   -0.099760  -0.038510  -0.102296  -0.124978  -0.144274  -0.026426
     2  C   -0.090748   0.024397  -0.007949   0.004095  -0.017891   0.086179
     3  C    0.022126  -0.006418   0.004829  -0.012280  -0.003243  -0.003117
     4  C    0.029550   0.014613   0.004085   0.001051   0.002444   0.038674
     5  C   -0.017621   0.043441  -0.000656   0.031700   0.002051   0.015527
     6  C    0.455635   0.307687   0.012177  -0.006876   0.041666  -0.061662
     7  C   -0.004153  -0.009513   0.438373   0.466949   0.478718  -0.009063
     8  O    0.010258  -0.017123   0.000121  -0.000260   0.000186   0.206632
     9  C   -0.002313  -0.000749  -0.000121  -0.000307  -0.000401  -0.017407
    10  C    0.001202  -0.000214   0.000117  -0.000020   0.000003  -0.001824
    11  C    0.003869  -0.000241   0.000062  -0.000016  -0.000015   0.007245
    12  H    0.004975  -0.003763   0.004710  -0.003717  -0.003674   0.000207
    13  H   -0.002093  -0.005889  -0.000004  -0.000003   0.000002  -0.007522
    14  H   -0.000035   0.000010   0.000000   0.000002  -0.000005   0.000007
    15  H    0.000082  -0.000020   0.000002   0.000001  -0.000001  -0.000223
    16  H    0.001603   0.000025   0.000001   0.000000   0.000000  -0.000273
    17  H    0.003558  -0.000023   0.003425  -0.000023  -0.000226   0.000001
    18  H   -0.000023  -0.000141  -0.000164   0.000010   0.002818  -0.000007
    19  H    0.542012  -0.028061   0.003318  -0.000207  -0.000002   0.000077
    20  H   -0.028061   0.561846  -0.000111   0.002632  -0.000015   0.004876
    21  H    0.003318  -0.000111   0.536071  -0.028587  -0.027964   0.000001
    22  H   -0.000207   0.002632  -0.028587   0.535454  -0.025675   0.000011
    23  H   -0.000002  -0.000015  -0.027964  -0.025675   0.531632   0.000000
    24  H    0.000077   0.004876   0.000001   0.000011   0.000000   0.404403
    25  H    0.000001   0.000002   0.000000   0.000000   0.000000  -0.000127
    26  H    0.000001   0.000000   0.000000   0.000000   0.000000   0.000000
    27  H    0.000000   0.000000   0.000000   0.000000   0.000000   0.000000
    28  H    0.000000   0.000000   0.000000   0.000000   0.000000   0.000000
    29  H    0.000004   0.000002   0.000000   0.000000   0.000000  -0.000008
    30  H    0.000004   0.000006   0.000000   0.000000   0.000000  -0.000096
    31  H    0.000000   0.000000   0.000000   0.000000   0.000000   0.000000
             25         26         27         28         29         30
     1  C   -0.001369  -0.000725   0.001040  -0.000164  -0.000246  -0.000025
     2  C   -0.010800  -0.000727   0.000836  -0.007964  -0.004523   0.017347
     3  C    0.019264   0.012216  -0.006810  -0.003274   0.006304  -0.000596
     4  C   -0.106593  -0.025408   0.008030   0.061438  -0.016468  -0.021406
     5  C   -0.002411   0.001494   0.001156   0.001064  -0.001863  -0.001683
     6  C    0.002615  -0.000069  -0.001506   0.000609   0.005473  -0.002329
     7  C   -0.000080  -0.000009   0.000018   0.000003  -0.000098  -0.000092
     8  O    0.008629   0.000168  -0.000114   0.000015   0.000581   0.001034
     9  C    0.386120  -0.070796  -0.076387  -0.160628  -0.076390  -0.072665
    10  C   -0.025391   0.426475   0.442479   0.462746  -0.004407  -0.008295
    11  C    0.004328   0.004530  -0.006521   0.004936   0.437663   0.452792
    12  H    0.000002   0.000000   0.000000   0.000000   0.000000   0.000000
    13  H    0.000042   0.000013   0.000001  -0.000003  -0.000510  -0.001377
    14  H   -0.000211   0.000158   0.000769   0.000002  -0.000001   0.000002
    15  H    0.003786   0.000057   0.000212  -0.000027   0.000004   0.000003
    16  H    0.005295   0.004189  -0.000296   0.000021   0.003182  -0.000011
    17  H    0.000003   0.000003   0.000013   0.000000   0.000000   0.000000
    18  H   -0.000001   0.000000   0.000008   0.000000   0.000000   0.000000
    19  H    0.000001   0.000001   0.000000   0.000000   0.000004   0.000004
    20  H    0.000002   0.000000   0.000000   0.000000   0.000002   0.000006
    21  H    0.000000   0.000000   0.000000   0.000000   0.000000   0.000000
    22  H    0.000000   0.000000   0.000000   0.000000   0.000000   0.000000
    23  H    0.000000   0.000000   0.000000   0.000000   0.000000   0.000000
    24  H   -0.000127   0.000000   0.000000   0.000000  -0.000008  -0.000096
    25  H    0.550498   0.004735  -0.003912  -0.003027   0.004728  -0.004156
    26  H    0.004735   0.536569  -0.029191  -0.028009   0.002798  -0.000005
    27  H   -0.003912  -0.029191   0.537835  -0.026334  -0.000039  -0.000130
    28  H   -0.003027  -0.028009  -0.026334   0.532314  -0.000115   0.000101
    29  H    0.004728   0.002798  -0.000039  -0.000115   0.538357  -0.028674
    30  H   -0.004156  -0.000005  -0.000130   0.000101  -0.028674   0.520424
    31  H   -0.002649  -0.000187   0.000126   0.003008  -0.028306  -0.025175
             31
     1  C    0.000082
     2  C   -0.008384
     3  C   -0.005904
     4  C    0.062401
     5  C    0.000467
     6  C    0.000153
     7  C    0.000016
     8  O   -0.000102
     9  C   -0.167875
    10  C    0.013522
    11  C    0.462173
    12  H    0.000000
    13  H    0.000173
    14  H   -0.000002
    15  H   -0.000001
    16  H   -0.000047
    17  H    0.000000
    18  H    0.000000
    19  H    0.000000
    20  H    0.000000
    21  H    0.000000
    22  H    0.000000
    23  H    0.000000
    24  H    0.000000
    25  H   -0.002649
    26  H   -0.000187
    27  H    0.000126
    28  H    0.003008
    29  H   -0.028306
    30  H   -0.025175
    31  H    0.535717
 Mulliken atomic charges:
              1
     1  C    0.348094
     2  C    0.351987
     3  C   -0.314761
     4  C   -0.295954
     5  C   -0.452222
     6  C   -0.712884
     7  C   -0.745239
     8  O   -0.578542
     9  C    0.308776
    10  C   -0.647116
    11  C   -0.676965
    12  H    0.167441
    13  H    0.134570
    14  H    0.148984
    15  H    0.176663
    16  H    0.154099
    17  H    0.157052
    18  H    0.155893
    19  H    0.166742
    20  H    0.151254
    21  H    0.160561
    22  H    0.161043
    23  H    0.163864
    24  H    0.363914
    25  H    0.170680
    26  H    0.161717
    27  H    0.158716
    28  H    0.163287
    29  H    0.162553
    30  H    0.175000
    31  H    0.160794
 Sum of Mulliken atomic charges =   0.00000
 Mulliken charges with hydrogens summed into heavy atoms:
              1
     1  C    0.515535
     2  C    0.486556
     3  C    0.010886
     4  C   -0.141855
     5  C   -0.139277
     6  C   -0.394889
     7  C   -0.259771
     8  O   -0.214628
     9  C    0.479456
    10  C   -0.163396
    11  C   -0.178617
 Sum of Mulliken charges with hydrogens summed into heavy atoms =   0.00000
 Electronic spatial extent (au):  <R**2>=           2213.5167
 Charge=              0.0000 electrons
 Dipole moment (field-independent basis, Debye):
    X=             -0.9614    Y=             -0.7596    Z=             -0.9764  Tot=              1.5667
 Quadrupole moment (field-independent basis, Debye-Ang):
   XX=            -72.9827   YY=            -68.0298   ZZ=            -73.4367
   XY=              2.3628   XZ=             -1.1180   YZ=              0.3262
 Traceless Quadrupole moment (field-independent basis, Debye-Ang):
   XX=             -1.4996   YY=              3.4533   ZZ=             -1.9537
   XY=              2.3628   XZ=             -1.1180   YZ=              0.3262
 Octapole moment (field-independent basis, Debye-Ang**2):
  XXX=              2.8610  YYY=            -24.2331  ZZZ=              1.2578  XYY=             -8.5215
  XXY=             -3.6960  XXZ=              6.4996  XZZ=             -2.2495  YZZ=             -0.7879
  YYZ=              7.0668  XYZ=              2.3574
 Hexadecapole moment (field-independent basis, Debye-Ang**3):
 XXXX=          -2197.7314 YYYY=           -610.9954 ZZZZ=           -253.0892 XXXY=              0.8694
 XXXZ=              2.4005 YYYX=             16.0458 YYYZ=            -23.5544 ZZZX=             -2.4551
 ZZZY=             -9.1793 XXYY=           -478.2384 XXZZ=           -406.9753 YYZZ=           -149.1022
 XXYZ=             -1.7758 YYXZ=             -8.2965 ZZXY=              2.0405
 N-N= 6.909280674338D+02 E-N=-2.467417478397D+03  KE= 4.637022874630D+02
 1\1\GINC-COMPUTE-10-2\SP\RmPW1PW91\6-31+G(d,p)\C10H20O1\ASAROTTI.IQUIR
 \19-Sep-2024\0\\# mPW1PW91/6-31+G** nmr scrf=(pcm,solvent=benzene)\\co
 mment\\0,1\C,0,-2.265426,0.081206,0.168397\C,0,-0.023655,-1.10682,-0.2
 06131\C,0,-0.057987,1.313719,0.515092\C,0,0.723182,0.240653,-0.274295\
 C,0,-1.525414,1.424789,0.075098\C,0,-1.493733,-0.977344,-0.634259\C,0,
 -3.723058,0.190663,-0.290531\O,0,0.086633,-1.585344,1.142243\C,0,2.207
 524,0.138024,0.174382\C,0,2.980255,1.435258,-0.122989\C,0,2.94355,-1.0
 53634,-0.460938\H,0,-2.255571,-0.232398,1.222284\H,0,0.467013,-1.81923
 4,-0.886445\H,0,0.424213,2.290677,0.401509\H,0,-0.016121,1.062674,1.58
 3074\H,0,0.7186,0.529545,-1.338958\H,0,-1.571063,1.785207,-0.965124\H,
 0,-2.040799,2.179167,0.684956\H,0,-1.52597,-0.722967,-1.704694\H,0,-1.
 983104,-1.959753,-0.541974\H,0,-3.784427,0.498327,-1.342742\H,0,-4.246
 642,-0.768732,-0.195\H,0,-4.27181,0.93119,0.303877\H,0,-0.39986,-2.422
 694,1.195684\H,0,2.207453,-0.019392,1.261237\H,0,2.987847,1.649849,-1.
 200328\H,0,2.555945,2.30568,0.387147\H,0,4.023664,1.344649,0.201385\H,
 0,2.896615,-1.016867,-1.557956\H,0,2.526608,-2.009356,-0.130379\H,0,4.
 002923,-1.04191,-0.178454\\Version=AM64L-G09RevC.01\State=1-A\HF=-468.
 2844568\RMSD=7.235e-09\Dipole=-0.3782512,-0.2988435,-0.384142\Quadrupo
 le=-1.1149233,2.5674286,-1.4525053,1.7567074,-0.8312243,0.2425249\PG=C
 01 [X(C10H20O1)]\\@


 NOTHING RESEMBLES A NEW PHENOMENON AS MUCH AS A MISTAKE.

                               -- ENRICO FERMI (?)
 Job cpu time:  0 days  0 hours  9 minutes 17.4 seconds.
 File lengths (MBytes):  RWF=    122 Int=      0 D2E=      0 Chk=      7 Scr=      1
 Normal termination of Gaussian 09 at Thu Sep 19 09:16:00 2024.
