 Entering Gaussian System, Link 0=g09
 Input=/home/asarotti.iquir/SCF2/03_Mentol05_OptB_NMR_benzene.gjc
 Output=/home/asarotti.iquir/SCF2/03_Mentol05_OptB_NMR_benzene.log
 Initial command:
 /opt/ohpc/pub/apps/software/Gaussian/09/AMD64.SSE4a-enabled/g09/l1.exe /local/asarotti.iquir/Gau-1839541.inp -scrdir=/local/asarotti.iquir/
 Entering Link 1 = /opt/ohpc/pub/apps/software/Gaussian/09/AMD64.SSE4a-enabled/g09/l1.exe PID=   1839542.
  
 Copyright (c) 1988,1990,1992,1993,1995,1998,2003,2009,2011,
            Gaussian, Inc.  All Rights Reserved.
  
 This is part of the Gaussian(R) 09 program.  It is based on
 the Gaussian(R) 03 system (copyright 2003, Gaussian, Inc.),
 the Gaussian(R) 98 system (copyright 1998, Gaussian, Inc.),
 the Gaussian(R) 94 system (copyright 1995, Gaussian, Inc.),
 the Gaussian 92(TM) system (copyright 1992, Gaussian, Inc.),
 the Gaussian 90(TM) system (copyright 1990, Gaussian, Inc.),
 the Gaussian 88(TM) system (copyright 1988, Gaussian, Inc.),
 the Gaussian 86(TM) system (copyright 1986, Carnegie Mellon
 University), and the Gaussian 82(TM) system (copyright 1983,
 Carnegie Mellon University). Gaussian is a federally registered
 trademark of Gaussian, Inc.
  
 This software contains proprietary and confidential information,
 including trade secrets, belonging to Gaussian, Inc.
  
 This software is provided under written license and may be
 used, copied, transmitted, or stored only in accord with that
 written license.
  
 The following legend is applicable only to US Government
 contracts under FAR:
  
                    RESTRICTED RIGHTS LEGEND
  
 Use, reproduction and disclosure by the US Government is
 subject to restrictions as set forth in subparagraphs (a)
 and (c) of the Commercial Computer Software - Restricted
 Rights clause in FAR 52.227-19.
  
 Gaussian, Inc.
 340 Quinnipiac St., Bldg. 40, Wallingford CT 06492
  
  
 ---------------------------------------------------------------
 Warning -- This program may not be used in any manner that
 competes with the business of Gaussian, Inc. or will provide
 assistance to any competitor of Gaussian, Inc.  The licensee
 of this program is prohibited from giving any competitor of
 Gaussian, Inc. access to this program.  By using this program,
 the user acknowledges that Gaussian, Inc. is engaged in the
 business of creating and licensing software in the field of
 computational chemistry and represents and warrants to the
 licensee that it is not a competitor of Gaussian, Inc. and that
 it will not use this program in any manner prohibited above.
 ---------------------------------------------------------------
  

 Cite this work as:
 Gaussian 09, Revision C.01,
 M. J. Frisch, G. W. Trucks, H. B. Schlegel, G. E. Scuseria, 
 M. A. Robb, J. R. Cheeseman, G. Scalmani, V. Barone, B. Mennucci, 
 G. A. Petersson, H. Nakatsuji, M. Caricato, X. Li, H. P. Hratchian, 
 A. F. Izmaylov, J. Bloino, G. Zheng, J. L. Sonnenberg, M. Hada, 
 M. Ehara, K. Toyota, R. Fukuda, J. Hasegawa, M. Ishida, T. Nakajima, 
 Y. Honda, O. Kitao, H. Nakai, T. Vreven, J. A. Montgomery, Jr., 
 J. E. Peralta, F. Ogliaro, M. Bearpark, J. J. Heyd, E. Brothers, 
 K. N. Kudin, V. N. Staroverov, T. Keith, R. Kobayashi, J. Normand, 
 K. Raghavachari, A. Rendell, J. C. Burant, S. S. Iyengar, J. Tomasi, 
 M. Cossi, N. Rega, J. M. Millam, M. Klene, J. E. Knox, J. B. Cross, 
 V. Bakken, C. Adamo, J. Jaramillo, R. Gomperts, R. E. Stratmann, 
 O. Yazyev, A. J. Austin, R. Cammi, C. Pomelli, J. W. Ochterski, 
 R. L. Martin, K. Morokuma, V. G. Zakrzewski, G. A. Voth, 
 P. Salvador, J. J. Dannenberg, S. Dapprich, A. D. Daniels, 
 O. Farkas, J. B. Foresman, J. V. Ortiz, J. Cioslowski, 
 and D. J. Fox, Gaussian, Inc., Wallingford CT, 2010.
 
 ******************************************
 Gaussian 09:  AM64L-G09RevC.01 23-Sep-2011
                19-Sep-2024 
 ******************************************
 %nprocshared=4
 Will use up to    4 processors via shared memory.
 %mem=100mw
 --------------------------------------------------
 # mPW1PW91/6-31+G** nmr scrf=(pcm,solvent=benzene)
 --------------------------------------------------
 1/38=1/1;
 2/12=2,17=6,18=5,40=1/2;
 3/5=1,6=6,7=111,11=2,16=1,25=1,30=1,70=2201,72=12,74=-7/1,2,8,3;
 4//1;
 5/5=2,38=5,53=12/2;
 8/6=1,10=90,11=11/1;
 10/13=100,45=16/2;
 6/7=2,8=2,9=2,10=2,28=1/1;
 99/9=1/99;
 -------
 comment
 -------
 Charge =  0 Multiplicity = 1
 Symbolic Z-Matrix:
 6                    -2.20957  -0.1104   -0.25934 
 6                    -0.12659   1.08216   0.63239 
 6                     0.12589  -1.03536  -0.72255 
 6                     0.70956  -0.19612   0.43087 
 6                    -1.35476  -1.37065  -0.48117 
 6                    -1.60655   0.73988   0.87293 
 6                    -3.67753  -0.45497   0.0145 
 8                     0.01878   1.91556  -0.52638 
 6                     2.24204   0.06072   0.34622 
 6                     2.73867   0.54557  -1.02611 
 6                     3.03336  -1.18174   0.79094 
 1                    -2.16051   0.48917  -1.17955 
 1                     0.26586   1.61653   1.51445 
 1                     0.6999   -1.96271  -0.84198 
 1                     0.22106  -0.47937  -1.6623 
 1                     0.55078  -0.76958   1.35864 
 1                    -1.44346  -2.02319   0.40205 
 1                    -1.75373  -1.94342  -1.32922 
 1                    -1.69414   0.20001   1.8277 
 1                    -2.18151   1.67116   0.9957 
 1                    -3.77863  -1.05366   0.92938 
 1                    -4.28514   0.44964   0.14141 
 1                    -4.10949  -1.03448  -0.81038 
 1                    -0.5356    2.69991  -0.39119 
 1                     2.46058   0.85789   1.07379 
 1                     2.62264  -0.23321  -1.78982 
 1                     2.19111   1.43085  -1.35571 
 1                     3.80634   0.79249  -0.97432 
 1                     2.85997  -2.0312    0.11832 
 1                     2.75567  -1.49676   1.80444 
 1                     4.11103  -0.97909   0.78749 
 
                          Input orientation:                          
 ---------------------------------------------------------------------
 Center     Atomic      Atomic             Coordinates (Angstroms)
 Number     Number       Type             X           Y           Z
 ---------------------------------------------------------------------
      1          6           0       -2.209565   -0.110402   -0.259339
      2          6           0       -0.126590    1.082160    0.632391
      3          6           0        0.125887   -1.035357   -0.722545
      4          6           0        0.709556   -0.196122    0.430870
      5          6           0       -1.354761   -1.370646   -0.481168
      6          6           0       -1.606548    0.739879    0.872930
      7          6           0       -3.677533   -0.454970    0.014501
      8          8           0        0.018776    1.915557   -0.526381
      9          6           0        2.242037    0.060721    0.346222
     10          6           0        2.738669    0.545571   -1.026106
     11          6           0        3.033362   -1.181743    0.790939
     12          1           0       -2.160510    0.489165   -1.179546
     13          1           0        0.265855    1.616533    1.514450
     14          1           0        0.699903   -1.962712   -0.841984
     15          1           0        0.221058   -0.479367   -1.662303
     16          1           0        0.550782   -0.769576    1.358641
     17          1           0       -1.443455   -2.023188    0.402048
     18          1           0       -1.753729   -1.943422   -1.329224
     19          1           0       -1.694136    0.200007    1.827700
     20          1           0       -2.181510    1.671163    0.995695
     21          1           0       -3.778634   -1.053657    0.929376
     22          1           0       -4.285145    0.449635    0.141412
     23          1           0       -4.109491   -1.034477   -0.810380
     24          1           0       -0.535602    2.699909   -0.391192
     25          1           0        2.460575    0.857893    1.073787
     26          1           0        2.622642   -0.233211   -1.789820
     27          1           0        2.191105    1.430854   -1.355712
     28          1           0        3.806335    0.792494   -0.974317
     29          1           0        2.859973   -2.031200    0.118323
     30          1           0        2.755673   -1.496756    1.804441
     31          1           0        4.111027   -0.979088    0.787488
 ---------------------------------------------------------------------
                    Distance matrix (angstroms):
                    1          2          3          4          5
     1  C    0.000000
     2  C    2.560502   0.000000
     3  C    2.554298   2.526554   0.000000
     4  C    3.000834   1.540700   1.541217   0.000000
     5  C    1.538867   2.960519   1.537205   2.544155   0.000000
     6  C    1.539039   1.537950   2.949294   2.536898   2.520177
     7  C    1.532529   3.918387   3.917409   4.414399   2.545470
     8  O    3.023462   1.434724   2.959366   2.419234   3.561991
     9  C    4.495859   2.595308   2.611846   1.556159   3.958578
    10  C    5.050074   3.353841   3.068894   2.605799   4.552473
    11  C    5.453360   3.890462   3.281078   2.549740   4.572698
    12  H    1.099394   2.787757   2.785790   3.361597   2.143796
    13  H    3.500905   1.103447   3.472212   2.157947   3.941082
    14  H    3.497932   3.482545   1.097154   2.177405   2.168496
    15  H    2.830613   2.797293   1.096051   2.168002   2.161634
    16  H    3.266785   2.101237   2.140680   1.102188   2.716114
    17  H    2.164049   3.380884   2.168722   2.823908   1.101702
    18  H    2.170807   3.955965   2.173844   3.495534   1.098384
    19  H    2.172039   2.159666   3.367842   2.808164   2.813005
    20  H    2.179420   2.168320   3.949896   3.487699   3.480983
    21  H    2.182831   4.241148   4.239630   4.596490   2.822282
    22  H    2.186841   4.234941   4.733796   5.044584   3.505450
    23  H    2.183410   4.735530   4.236289   5.046460   2.794625
    24  H    3.273742   1.957581   3.807831   3.257791   4.153136
    25  H    4.952275   2.634113   3.501710   2.142512   4.684129
    26  H    5.070274   3.893017   2.831307   2.931337   4.338901
    27  H    4.789927   3.073410   3.278448   2.834416   4.602868
    28  H    6.125150   4.258323   4.117053   3.541462   5.617765
    29  H    5.434364   4.344748   3.028859   2.844203   4.308097
    30  H    5.552905   4.041281   3.676183   2.786564   4.704846
    31  H    6.465319   4.714891   4.262007   3.508592   5.624735
                    6          7          8          9         10
     6  C    0.000000
     7  C    2.540383   0.000000
     8  O    2.445806   4.424325   0.000000
     9  C    3.943385   5.951242   3.024027   0.000000
    10  C    4.746051   6.576594   3.086163   1.537858   0.000000
    11  C    5.022760   6.794642   4.518443   1.538728   2.524304
    12  H    2.140652   2.149069   2.685239   4.679097   4.901906
    13  H    2.164709   4.700136   2.077367   2.773194   3.703538
    14  H    3.945205   4.708375   3.950254   2.807898   3.237584
    15  H    3.354715   4.243970   2.658364   2.900039   2.791704
    16  H    2.677395   4.447959   3.323594   2.138862   3.493348
    17  H    2.807645   2.756919   4.302768   4.234223   5.111586
    18  H    3.474370   2.778868   4.321811   4.773872   5.144765
    19  H    1.100327   2.765963   3.379183   4.208044   5.283312
    20  H    1.101337   2.778717   2.686578   4.752169   5.437168
    21  H    2.817431   1.098018   5.035453   6.150641   6.989755
    22  H    2.791817   1.097091   4.595499   6.541965   7.120833
    23  H    3.499514   1.096743   5.081923   6.548213   7.031386
    24  H    2.566446   4.470971   0.969958   3.901842   3.970534
    25  H    4.073789   6.365694   3.105088   1.101178   2.141129
    26  H    5.091482   6.557206   3.604664   2.189505   1.096915
    27  H    4.457181   6.314644   2.375235   2.185506   1.091876
    28  H    5.719650   7.651288   3.975867   2.174015   1.097071
    29  H    5.310190   6.725642   4.905602   2.193152   2.822088
    30  H    4.989912   6.758354   4.956533   2.194529   3.490471
    31  H    5.970998   7.844353   5.181866   2.183814   2.738079
                   11         12         13         14         15
    11  C    0.000000
    12  H    5.800953   0.000000
    13  H    4.001614   3.796817   0.000000
    14  H    2.953198   3.782540   4.307223   0.000000
    15  H    3.797470   2.615908   3.806122   1.761399   0.000000
    16  H    2.579801   3.921470   2.408106   2.507700   3.052711
    17  H    4.571778   3.054100   4.172139   2.478963   3.068474
    18  H    5.290698   2.470901   4.983822   2.501616   2.480762
    19  H    5.033224   3.056901   2.438491   4.187599   4.038519
    20  H    5.947763   2.475729   2.502336   4.988452   4.178764
    21  H    6.814606   3.073463   4.881610   4.901162   4.800432
    22  H    7.526209   2.502112   4.894741   5.624695   4.941892
    23  H    7.321630   2.501259   5.619283   4.898254   4.448323
    24  H    5.403902   2.854683   2.333990   4.844556   3.506573
    25  H    2.137335   5.154406   2.363581   3.837441   3.780197
    26  H    2.780058   4.875736   4.460291   2.754359   2.417532
    27  H    3.484705   4.455824   3.461054   3.742177   2.761164
    28  H    2.758845   5.978074   4.405451   4.154346   3.865898
    29  H    1.097294   5.765584   4.688771   2.364906   3.541566
    30  H    1.097055   6.084153   3.996981   3.383322   4.413351
    31  H    1.096560   6.734773   4.695857   3.906208   4.624182
                   16         17         18         19         20
    16  H    0.000000
    17  H    2.542360   0.000000
    18  H    3.730054   1.760663   0.000000
    19  H    2.489933   2.652908   3.816282   0.000000
    20  H    3.681624   3.813839   4.318966   1.758996   0.000000
    21  H    4.359910   2.582852   3.161202   2.593027   3.159090
    22  H    5.133645   3.775975   3.781211   3.101485   2.578218
    23  H    5.147132   3.091161   2.577789   3.783828   3.781469
    24  H    4.034783   4.874533   4.891243   3.537682   2.385537
    25  H    2.525293   4.898297   5.601981   4.273502   4.713434
    26  H    3.806980   4.953933   4.721186   5.648779   5.870742
    27  H    3.860086   5.313206   5.191161   5.171479   4.970576
    28  H    4.298998   6.114143   6.206892   6.201413   6.364534
    29  H    2.909029   4.312778   4.836253   5.351651   6.316156
    30  H    2.364122   4.458308   5.509453   4.762389   5.921618
    31  H    3.611849   5.664890   6.309182   6.014335   6.831047
                   21         22         23         24         25
    21  H    0.000000
    22  H    1.771250   0.000000
    23  H    1.771041   1.771821   0.000000
    24  H    5.133265   4.405278   5.185946   0.000000
    25  H    6.527067   6.822077   7.092032   3.810021   0.000000
    26  H    7.003106   7.205099   6.850032   4.531430   3.068716
    27  H    6.858003   6.719076   6.787691   3.158438   2.510650
    28  H    8.035177   8.175234   8.125577   4.778146   2.451546
    29  H    6.759031   7.563583   7.101364   5.845761   3.069086
    30  H    6.607514   7.491810   7.360806   5.767607   2.483004
    31  H    7.891289   8.541333   8.374555   6.042803   2.486053
                   26         27         28         29         30
    26  H    0.000000
    27  H    1.773073   0.000000
    28  H    1.765855   1.778183   0.000000
    29  H    2.632508   3.821777   3.172178   0.000000
    30  H    3.812211   4.344675   3.750474   1.771864   0.000000
    31  H    3.068247   3.753296   2.517002   1.766312   1.771767
                   31
    31  H    0.000000
 Stoichiometry    C10H20O
 Framework group  C1[X(C10H20O)]
 Deg. of freedom    87
 Full point group                 C1      NOp   1
 Largest Abelian subgroup         C1      NOp   1
 Largest concise Abelian subgroup C1      NOp   1
                         Standard orientation:                         
 ---------------------------------------------------------------------
 Center     Atomic      Atomic             Coordinates (Angstroms)
 Number     Number       Type             X           Y           Z
 ---------------------------------------------------------------------
      1          6           0       -2.209565   -0.110402   -0.259339
      2          6           0       -0.126590    1.082160    0.632391
      3          6           0        0.125887   -1.035357   -0.722545
      4          6           0        0.709556   -0.196122    0.430870
      5          6           0       -1.354761   -1.370646   -0.481168
      6          6           0       -1.606548    0.739879    0.872930
      7          6           0       -3.677533   -0.454970    0.014501
      8          8           0        0.018776    1.915557   -0.526381
      9          6           0        2.242037    0.060721    0.346222
     10          6           0        2.738669    0.545571   -1.026106
     11          6           0        3.033362   -1.181743    0.790939
     12          1           0       -2.160510    0.489165   -1.179546
     13          1           0        0.265855    1.616533    1.514450
     14          1           0        0.699903   -1.962712   -0.841984
     15          1           0        0.221058   -0.479367   -1.662303
     16          1           0        0.550782   -0.769576    1.358641
     17          1           0       -1.443455   -2.023188    0.402048
     18          1           0       -1.753729   -1.943422   -1.329224
     19          1           0       -1.694136    0.200007    1.827700
     20          1           0       -2.181510    1.671163    0.995695
     21          1           0       -3.778634   -1.053657    0.929376
     22          1           0       -4.285145    0.449635    0.141412
     23          1           0       -4.109491   -1.034477   -0.810380
     24          1           0       -0.535602    2.699909   -0.391192
     25          1           0        2.460575    0.857893    1.073787
     26          1           0        2.622642   -0.233211   -1.789820
     27          1           0        2.191105    1.430854   -1.355712
     28          1           0        3.806335    0.792494   -0.974317
     29          1           0        2.859973   -2.031200    0.118323
     30          1           0        2.755673   -1.496756    1.804441
     31          1           0        4.111027   -0.979088    0.787488
 ---------------------------------------------------------------------
 Rotational constants (GHZ):      1.9639739      0.6690190      0.5929841
 Standard basis: 6-31+G(d,p) (6D, 7F)
 There are   309 symmetry adapted basis functions of A   symmetry.
 Integral buffers will be    131072 words long.
 Raffenetti 2 integral format.
 Two-electron integral symmetry is turned on.
   309 basis functions,   492 primitive gaussians,   309 cartesian basis functions
    44 alpha electrons       44 beta electrons
       nuclear repulsion energy       692.4210573033 Hartrees.
 NAtoms=   31 NActive=   31 NUniq=   31 SFac= 1.00D+00 NAtFMM=   60 NAOKFM=F Big=F
 ------------------------------------------------------------------------------
 Polarizable Continuum Model (PCM)
 =================================
 Model                : PCM.
 Atomic radii         : UFF (Universal Force Field).
 Polarization charges : Total charges.
 Charge compensation  : None.
 Solution method      : Matrix inversion.
 Cavity type          : Scaled VdW (van der Waals Surface) (Alpha=1.100).
 Cavity algorithm     : GePol (No added spheres)
                        Default sphere list used, NSphG=   31.
                        Lebedev-Laikov grids with approx.  5.0 points / Ang**2.
                        Smoothing algorithm: Karplus/York (Gamma=1.0000).
                        Polarization charges: spherical gaussians, with
                                              point-specific exponents (IZeta= 3).
                        Self-potential: point-specific (ISelfS= 7).
                        Self-field    : sphere-specific E.n sum rule (ISelfD= 2).
 Solvent              : Benzene, Eps=   2.270600 Eps(inf)=   2.253301
 ------------------------------------------------------------------------------
 One-electron integrals computed using PRISM.
 NBasis=   309 RedAO= T  NBF=   309
 NBsUse=   309 1.00D-06 NBFU=   309
 Harris functional with IExCor=  908 diagonalized for initial guess.
 ExpMin= 4.38D-02 ExpMax= 5.48D+03 ExpMxC= 8.25D+02 IAcc=2 IRadAn=         4 AccDes= 0.00D+00
 HarFok:  IExCor=  908 AccDes= 0.00D+00 IRadAn=         4 IDoV= 1
 ScaDFX=  1.000000  1.000000  1.000000  1.000000
 FoFCou: FMM=F IPFlag=           0 FMFlag=      100000 FMFlg1=           0
         NFxFlg=           0 DoJE=T BraDBF=F KetDBF=T FulRan=T
         Omega=  0.000000  0.000000  1.000000  0.000000  0.000000 ICntrl=     500 IOpCl=  0
         NMat0=    1 NMatS0=    1 NMatT0=    0 NMatD0=    1 NMtDS0=    0 NMtDT0=    0
         I1Cent=           4 NGrid=           0.
 Petite list used in FoFCou.
 Initial guess orbital symmetries:
       Occupied  (A) (A) (A) (A) (A) (A) (A) (A) (A) (A) (A) (A)
                 (A) (A) (A) (A) (A) (A) (A) (A) (A) (A) (A) (A)
                 (A) (A) (A) (A) (A) (A) (A) (A) (A) (A) (A) (A)
                 (A) (A) (A) (A) (A) (A) (A) (A)
       Virtual   (A) (A) (A) (A) (A) (A) (A) (A) (A) (A) (A) (A)
                 (A) (A) (A) (A) (A) (A) (A) (A) (A) (A) (A) (A)
                 (A) (A) (A) (A) (A) (A) (A) (A) (A) (A) (A) (A)
                 (A) (A) (A) (A) (A) (A) (A) (A) (A) (A) (A) (A)
                 (A) (A) (A) (A) (A) (A) (A) (A) (A) (A) (A) (A)
                 (A) (A) (A) (A) (A) (A) (A) (A) (A) (A) (A) (A)
                 (A) (A) (A) (A) (A) (A) (A) (A) (A) (A) (A) (A)
                 (A) (A) (A) (A) (A) (A) (A) (A) (A) (A) (A) (A)
                 (A) (A) (A) (A) (A) (A) (A) (A) (A) (A) (A) (A)
                 (A) (A) (A) (A) (A) (A) (A) (A) (A) (A) (A) (A)
                 (A) (A) (A) (A) (A) (A) (A) (A) (A) (A) (A) (A)
                 (A) (A) (A) (A) (A) (A) (A) (A) (A) (A) (A) (A)
                 (A) (A) (A) (A) (A) (A) (A) (A) (A) (A) (A) (A)
                 (A) (A) (A) (A) (A) (A) (A) (A) (A) (A) (A) (A)
                 (A) (A) (A) (A) (A) (A) (A) (A) (A) (A) (A) (A)
                 (A) (A) (A) (A) (A) (A) (A) (A) (A) (A) (A) (A)
                 (A) (A) (A) (A) (A) (A) (A) (A) (A) (A) (A) (A)
                 (A) (A) (A) (A) (A) (A) (A) (A) (A) (A) (A) (A)
                 (A) (A) (A) (A) (A) (A) (A) (A) (A) (A) (A) (A)
                 (A) (A) (A) (A) (A) (A) (A) (A) (A) (A) (A) (A)
                 (A) (A) (A) (A) (A) (A) (A) (A) (A) (A) (A) (A)
                 (A) (A) (A) (A) (A) (A) (A) (A) (A) (A) (A) (A)
                 (A)
 The electronic state of the initial guess is 1-A.
 Requested convergence on RMS density matrix=1.00D-08 within 128 cycles.
 Requested convergence on MAX density matrix=1.00D-06.
 Requested convergence on             energy=1.00D-06.
 No special actions if energy rises.
 Error on total polarization charges =  0.00942
 SCF Done:  E(RmPW1PW91) =  -468.282853860     A.U. after   12 cycles
             Convg  =    0.6325D-08             -V/T =  2.0099
 Range of M.O.s used for correlation:     1   309
 NBasis=   309 NAE=    44 NBE=    44 NFC=     0 NFV=     0
 NROrb=    309 NOA=    44 NOB=    44 NVA=   265 NVB=   265

 **** Warning!!: The largest alpha MO coefficient is  0.81612524D+02

 NEqPCM:  Using equilibrium solvation (IEInf=0, Eps=   2.2706, EpsInf=   2.2533)
          Differentiating once with respect to magnetic field using GIAOs.
          Electric field/nuclear overlap derivatives assumed to be zero.
 FoFCou: FMM=F IPFlag=           0 FMFlag=    10101102 FMFlg1=           0
         NFxFlg=    40000000 DoJE=F BraDBF=F KetDBF=T FulRan=T
         Omega=  0.000000  0.000000  1.000000  0.000000  0.000000 ICntrl=    6100 IOpCl=  0
         NMat0=    1 NMatS0=    1 NMatT0=    0 NMatD0=    1 NMtDS0=    0 NMtDT0=    0
         I1Cent=           7 NGrid=        1930.
 Symmetry not used in FoFCou.
          There are     3 degrees of freedom in the 1st order CPHF.  IDoFFX=0.
      3 vectors produced by pass  0 Test12= 3.89D-13 3.33D-08 XBig12= 3.98D+01 1.42D+00.
 AX will form     3 AO Fock derivatives at one time.
      3 vectors produced by pass  1 Test12= 3.89D-13 3.33D-08 XBig12= 9.41D-02 8.68D-02.
      3 vectors produced by pass  2 Test12= 3.89D-13 3.33D-08 XBig12= 3.05D-04 5.39D-03.
      3 vectors produced by pass  3 Test12= 3.89D-13 3.33D-08 XBig12= 1.78D-06 2.56D-04.
      3 vectors produced by pass  4 Test12= 3.89D-13 3.33D-08 XBig12= 3.88D-09 1.11D-05.
      3 vectors produced by pass  5 Test12= 3.89D-13 3.33D-08 XBig12= 7.03D-12 4.76D-07.
 Inverted reduced A of dimension    18 with in-core refinement.
 Calculating GIAO nuclear magnetic shielding tensors.
 SCF GIAO Magnetic shielding tensor (ppm):
      1  C    Isotropic =   167.2011   Anisotropy =    15.0496
   XX=   171.7935   YX=    -3.0041   ZX=    -3.2223
   XY=    -5.5087   YY=   168.1986   ZY=     1.9328
   XZ=   -10.1979   YZ=     0.5175   ZZ=   161.6112
   Eigenvalues:   158.2081   166.1611   177.2341
      2  C    Isotropic =   119.8658   Anisotropy =    33.9934
   XX=   114.0355   YX=    -1.0021   ZX=    -4.9146
   XY=    -5.3665   YY=   118.4708   ZY=   -21.5695
   XZ=     4.1673   YZ=   -16.7637   ZZ=   127.0912
   Eigenvalues:   102.4909   114.5785   142.5281
      3  C    Isotropic =   174.1848   Anisotropy =    18.1206
   XX=   185.8580   YX=    -0.0846   ZX=    -3.4737
   XY=     3.4360   YY=   169.2534   ZY=     3.0887
   XZ=    -0.9855   YZ=    -1.1005   ZZ=   167.4430
   Eigenvalues:   166.6176   169.6716   186.2652
      4  C    Isotropic =   147.5239   Anisotropy =    16.1340
   XX=   154.2956   YX=    -4.1426   ZX=    -2.3373
   XY=     7.3261   YY=   142.7772   ZY=    -8.4450
   XZ=    -5.8691   YZ=   -10.8322   ZZ=   145.4988
   Eigenvalues:   134.2879   150.0039   158.2799
      5  C    Isotropic =   159.1449   Anisotropy =    20.0927
   XX=   167.4179   YX=    -3.6936   ZX=    -5.4571
   XY=   -11.4337   YY=   158.7680   ZY=    -2.1294
   XZ=    -4.2299   YZ=     1.0161   ZZ=   151.2488
   Eigenvalues:   149.0017   155.8930   172.5400
      6  C    Isotropic =   149.3785   Anisotropy =    26.2671
   XX=   160.6197   YX=    12.9026   ZX=    -4.7716
   XY=    10.1092   YY=   145.7056   ZY=    -3.7195
   XZ=     8.8376   YZ=    -1.1174   ZZ=   141.8101
   Eigenvalues:   137.3137   143.9318   166.8899
      7  C    Isotropic =   173.2691   Anisotropy =    37.6431
   XX=   196.9312   YX=     4.5501   ZX=    -1.1800
   XY=     7.7233   YY=   163.5364   ZY=     1.0806
   XZ=    -6.6350   YZ=     1.2246   ZZ=   159.3397
   Eigenvalues:   158.2220   163.2209   198.3645
      8  O    Isotropic =   281.9781   Anisotropy =    81.9168
   XX=   284.3123   YX=   -34.8798   ZX=    -8.9922
   XY=   -29.4921   YY=   316.6910   ZY=   -17.8169
   XZ=   -20.4842   YZ=     5.0286   ZZ=   244.9311
   Eigenvalues:   235.9989   273.3462   336.5893
      9  C    Isotropic =   159.5556   Anisotropy =    19.5039
   XX=   171.8652   YX=     2.5520   ZX=     3.9640
   XY=     2.4308   YY=   155.0946   ZY=     2.5663
   XZ=     0.4540   YZ=     3.2274   ZZ=   151.7069
   Eigenvalues:   150.0225   156.0861   172.5582
     10  C    Isotropic =   177.1291   Anisotropy =    26.6706
   XX=   173.4662   YX=     2.8031   ZX=    -9.3011
   XY=    -0.6111   YY=   172.4558   ZY=   -10.9132
   XZ=    -4.7387   YZ=   -13.6721   ZZ=   185.4651
   Eigenvalues:   164.1334   172.3443   194.9094
     11  C    Isotropic =   171.9879   Anisotropy =    38.0643
   XX=   173.0456   YX=   -13.3220   ZX=     3.3334
   XY=   -16.0804   YY=   176.8986   ZY=   -20.9194
   XZ=    -2.9015   YZ=   -16.9189   ZZ=   166.0196
   Eigenvalues:   148.2739   170.3258   197.3641
     12  H    Isotropic =    29.5075   Anisotropy =     5.4793
   XX=    29.9901   YX=     0.6398   ZX=     1.5057
   XY=     0.8395   YY=    27.9748   ZY=    -3.5725
   XZ=     1.0787   YZ=    -3.4826   ZZ=    30.5576
   Eigenvalues:    25.1325    30.2296    33.1604
     13  H    Isotropic =    27.5456   Anisotropy =     5.4798
   XX=    26.2265   YX=     0.7100   ZX=     0.4108
   XY=     0.7008   YY=    26.1762   ZY=     0.8440
   XZ=     1.5030   YZ=     2.8049   ZZ=    30.2341
   Eigenvalues:    25.3266    26.1114    31.1988
     14  H    Isotropic =    30.2426   Anisotropy =     8.7473
   XX=    33.1906   YX=    -2.9211   ZX=    -0.0097
   XY=    -2.3319   YY=    32.6537   ZY=     3.5031
   XZ=    -0.1001   YZ=     3.1799   ZZ=    24.8835
   Eigenvalues:    23.5620    31.0918    36.0742
     15  H    Isotropic =    29.7475   Anisotropy =     5.5920
   XX=    29.8780   YX=     2.1242   ZX=    -1.3451
   XY=     1.2484   YY=    26.5154   ZY=    -0.5858
   XZ=    -0.9754   YZ=    -0.8212   ZZ=    32.8491
   Eigenvalues:    25.8091    29.9578    33.4755
     16  H    Isotropic =    30.4179   Anisotropy =     4.7226
   XX=    32.3890   YX=    -0.6832   ZX=     0.1065
   XY=    -1.1986   YY=    27.5734   ZY=    -3.0688
   XZ=     0.3214   YZ=    -3.4358   ZZ=    31.2914
   Eigenvalues:    25.6120    32.0754    33.5663
     17  H    Isotropic =    30.6630   Anisotropy =     6.8431
   XX=    30.9549   YX=     0.8700   ZX=    -1.3335
   XY=     0.9657   YY=    33.0528   ZY=    -3.7118
   XZ=    -0.6073   YZ=    -3.3199   ZZ=    27.9814
   Eigenvalues:    26.1394    30.6246    35.2251
     18  H    Isotropic =    29.8722   Anisotropy =     8.7773
   XX=    30.4516   YX=     1.6135   ZX=     1.6582
   XY=     1.9445   YY=    29.8285   ZY=     5.2021
   XZ=     1.2718   YZ=     5.0633   ZZ=    29.3366
   Eigenvalues:    24.4389    29.4541    35.7237
     19  H    Isotropic =    30.3616   Anisotropy =     6.3890
   XX=    30.3475   YX=     0.8201   ZX=    -2.2013
   XY=     0.3459   YY=    27.0339   ZY=    -0.4518
   XZ=    -1.5910   YZ=    -0.5426   ZZ=    33.7036
   Eigenvalues:    26.9292    29.5347    34.6210
     20  H    Isotropic =    30.1532   Anisotropy =     7.5292
   XX=    30.8837   YX=    -2.2307   ZX=    -1.0175
   XY=    -1.4403   YY=    32.4956   ZY=     3.4162
   XZ=    -1.7161   YZ=     3.0253   ZZ=    27.0802
   Eigenvalues:    25.5349    29.7520    35.1726
     21  H    Isotropic =    31.0354   Anisotropy =     8.5128
   XX=    31.9107   YX=     2.5801   ZX=    -3.1727
   XY=     2.0013   YY=    29.5803   ZY=    -3.1903
   XZ=    -2.5323   YZ=    -3.1486   ZZ=    31.6153
   Eigenvalues:    27.2581    29.1375    36.7106
     22  H    Isotropic =    30.7065   Anisotropy =    10.6715
   XX=    35.4297   YX=    -4.7291   ZX=    -0.6603
   XY=    -3.4305   YY=    30.5777   ZY=     0.3989
   XZ=    -0.6652   YZ=     0.9458   ZZ=    26.1121
   Eigenvalues:    26.0124    28.2863    37.8208
     23  H    Isotropic =    30.5515   Anisotropy =    10.5040
   XX=    33.5926   YX=     3.4570   ZX=     4.1610
   XY=     2.6274   YY=    28.2354   ZY=     3.2752
   XZ=     2.9291   YZ=     2.5598   ZZ=    29.8267
   Eigenvalues:    25.9894    28.1110    37.5542
     24  H    Isotropic =    31.1780   Anisotropy =    18.5857
   XX=    28.5938   YX=    -7.4606   ZX=    -2.2287
   XY=    -7.5578   YY=    39.7609   ZY=    -1.4976
   XZ=    -1.4470   YZ=    -2.0922   ZZ=    25.1794
   Eigenvalues:    22.5315    27.4342    43.5685
     25  H    Isotropic =    29.7658   Anisotropy =     6.7393
   XX=    29.2049   YX=     1.0388   ZX=     2.1115
   XY=     0.3667   YY=    30.2789   ZY=     3.5264
   XZ=     1.8942   YZ=     3.4465   ZZ=    29.8136
   Eigenvalues:    26.1736    28.8651    34.2587
     26  H    Isotropic =    30.9226   Anisotropy =     6.7973
   XX=    30.1667   YX=     0.6263   ZX=    -2.1125
   XY=     0.9551   YY=    28.6315   ZY=     2.2187
   XZ=    -1.5704   YZ=     3.0875   ZZ=    33.9695
   Eigenvalues:    26.8663    30.4473    35.4541
     27  H    Isotropic =    29.5650   Anisotropy =     7.6289
   XX=    30.2741   YX=    -2.0931   ZX=    -1.9377
   XY=    -2.9530   YY=    31.0009   ZY=    -4.2735
   XZ=    -1.0977   YZ=    -5.1499   ZZ=    27.4199
   Eigenvalues:    23.1422    30.9017    34.6509
     28  H    Isotropic =    30.8999   Anisotropy =    10.7592
   XX=    36.2768   YX=     3.2663   ZX=    -1.6025
   XY=     3.1722   YY=    28.1298   ZY=    -1.7761
   XZ=    -2.6359   YZ=    -1.6483   ZZ=    28.2931
   Eigenvalues:    26.3706    28.2564    38.0727
     29  H    Isotropic =    30.5528   Anisotropy =     6.8460
   XX=    29.9594   YX=    -2.2422   ZX=     0.8865
   XY=    -1.7149   YY=    33.9706   ZY=     2.5783
   XZ=     1.1765   YZ=     1.5481   ZZ=    27.7283
   Eigenvalues:    26.3686    30.1730    35.1168
     30  H    Isotropic =    30.7664   Anisotropy =     9.8890
   XX=    28.7399   YX=    -1.8799   ZX=     1.3019
   XY=    -0.9292   YY=    29.0517   ZY=    -5.1876
   XZ=     0.5723   YZ=    -3.9330   ZZ=    34.5076
   Eigenvalues:    26.2164    28.7237    37.3590
     31  H    Isotropic =    30.6787   Anisotropy =    10.5629
   XX=    37.1788   YX=    -0.6333   ZX=     1.8387
   XY=    -2.0930   YY=    27.6716   ZY=    -1.1546
   XZ=     1.6375   YZ=    -1.5572   ZZ=    27.1857
   Eigenvalues:    26.0290    28.2865    37.7206
 End of Minotr Frequency-dependent properties file   721 does not exist.
 End of Minotr Frequency-dependent properties file   722 does not exist.

 **********************************************************************

            Population analysis using the SCF density.

 **********************************************************************

 Orbital symmetries:
       Occupied  (A) (A) (A) (A) (A) (A) (A) (A) (A) (A) (A) (A)
                 (A) (A) (A) (A) (A) (A) (A) (A) (A) (A) (A) (A)
                 (A) (A) (A) (A) (A) (A) (A) (A) (A) (A) (A) (A)
                 (A) (A) (A) (A) (A) (A) (A) (A)
       Virtual   (A) (A) (A) (A) (A) (A) (A) (A) (A) (A) (A) (A)
                 (A) (A) (A) (A) (A) (A) (A) (A) (A) (A) (A) (A)
                 (A) (A) (A) (A) (A) (A) (A) (A) (A) (A) (A) (A)
                 (A) (A) (A) (A) (A) (A) (A) (A) (A) (A) (A) (A)
                 (A) (A) (A) (A) (A) (A) (A) (A) (A) (A) (A) (A)
                 (A) (A) (A) (A) (A) (A) (A) (A) (A) (A) (A) (A)
                 (A) (A) (A) (A) (A) (A) (A) (A) (A) (A) (A) (A)
                 (A) (A) (A) (A) (A) (A) (A) (A) (A) (A) (A) (A)
                 (A) (A) (A) (A) (A) (A) (A) (A) (A) (A) (A) (A)
                 (A) (A) (A) (A) (A) (A) (A) (A) (A) (A) (A) (A)
                 (A) (A) (A) (A) (A) (A) (A) (A) (A) (A) (A) (A)
                 (A) (A) (A) (A) (A) (A) (A) (A) (A) (A) (A) (A)
                 (A) (A) (A) (A) (A) (A) (A) (A) (A) (A) (A) (A)
                 (A) (A) (A) (A) (A) (A) (A) (A) (A) (A) (A) (A)
                 (A) (A) (A) (A) (A) (A) (A) (A) (A) (A) (A) (A)
                 (A) (A) (A) (A) (A) (A) (A) (A) (A) (A) (A) (A)
                 (A) (A) (A) (A) (A) (A) (A) (A) (A) (A) (A) (A)
                 (A) (A) (A) (A) (A) (A) (A) (A) (A) (A) (A) (A)
                 (A) (A) (A) (A) (A) (A) (A) (A) (A) (A) (A) (A)
                 (A) (A) (A) (A) (A) (A) (A) (A) (A) (A) (A) (A)
                 (A) (A) (A) (A) (A) (A) (A) (A) (A) (A) (A) (A)
                 (A) (A) (A) (A) (A) (A) (A) (A) (A) (A) (A) (A)
                 (A)
 The electronic state is 1-A.
 Alpha  occ. eigenvalues --  -19.24426 -10.29489 -10.24698 -10.24686 -10.24555
 Alpha  occ. eigenvalues --  -10.24194 -10.23709 -10.23436 -10.23300 -10.22962
 Alpha  occ. eigenvalues --  -10.22046  -1.04978  -0.85708  -0.81897  -0.76354
 Alpha  occ. eigenvalues --   -0.75521  -0.69504  -0.69311  -0.63211  -0.61442
 Alpha  occ. eigenvalues --   -0.57987  -0.55554  -0.51268  -0.48337  -0.46912
 Alpha  occ. eigenvalues --   -0.45991  -0.45567  -0.42826  -0.42281  -0.41348
 Alpha  occ. eigenvalues --   -0.40758  -0.39743  -0.38974  -0.37693  -0.36698
 Alpha  occ. eigenvalues --   -0.36222  -0.34812  -0.34701  -0.33516  -0.32240
 Alpha  occ. eigenvalues --   -0.32160  -0.31011  -0.29531  -0.27850
 Alpha virt. eigenvalues --    0.00493   0.01862   0.02097   0.02538   0.03636
 Alpha virt. eigenvalues --    0.04416   0.04641   0.04932   0.05872   0.06816
 Alpha virt. eigenvalues --    0.07154   0.07370   0.07588   0.08648   0.09245
 Alpha virt. eigenvalues --    0.09546   0.10270   0.10384   0.11029   0.11376
 Alpha virt. eigenvalues --    0.12076   0.13106   0.13692   0.14293   0.15064
 Alpha virt. eigenvalues --    0.15757   0.15996   0.16215   0.17453   0.17914
 Alpha virt. eigenvalues --    0.18608   0.18958   0.19249   0.19692   0.19953
 Alpha virt. eigenvalues --    0.20714   0.21110   0.21770   0.22074   0.22655
 Alpha virt. eigenvalues --    0.22719   0.23082   0.24146   0.24368   0.25232
 Alpha virt. eigenvalues --    0.25467   0.25647   0.26287   0.26667   0.27101
 Alpha virt. eigenvalues --    0.28433   0.28596   0.28731   0.29411   0.29831
 Alpha virt. eigenvalues --    0.30870   0.31377   0.32510   0.32971   0.33977
 Alpha virt. eigenvalues --    0.34248   0.34909   0.35938   0.36502   0.37049
 Alpha virt. eigenvalues --    0.37791   0.38674   0.39722   0.41618   0.42765
 Alpha virt. eigenvalues --    0.44031   0.44299   0.45825   0.51107   0.52838
 Alpha virt. eigenvalues --    0.62955   0.64729   0.65890   0.66013   0.67269
 Alpha virt. eigenvalues --    0.68431   0.69664   0.70598   0.72089   0.72883
 Alpha virt. eigenvalues --    0.74209   0.74685   0.75344   0.76780   0.77071
 Alpha virt. eigenvalues --    0.78044   0.78659   0.80696   0.83164   0.83736
 Alpha virt. eigenvalues --    0.86239   0.88627   0.89129   0.89520   0.91388
 Alpha virt. eigenvalues --    0.93711   0.96972   0.98525   0.99682   1.00780
 Alpha virt. eigenvalues --    1.01719   1.02194   1.02874   1.03869   1.05178
 Alpha virt. eigenvalues --    1.06265   1.07102   1.08274   1.10178   1.11160
 Alpha virt. eigenvalues --    1.13873   1.14277   1.15107   1.15790   1.17145
 Alpha virt. eigenvalues --    1.18069   1.19021   1.20360   1.21290   1.22435
 Alpha virt. eigenvalues --    1.23325   1.26589   1.27092   1.30597   1.32987
 Alpha virt. eigenvalues --    1.38292   1.39060   1.40728   1.43254   1.46698
 Alpha virt. eigenvalues --    1.47097   1.49317   1.52700   1.55826   1.58144
 Alpha virt. eigenvalues --    1.59029   1.62252   1.64155   1.65008   1.66291
 Alpha virt. eigenvalues --    1.70301   1.70913   1.75626   1.76886   1.81671
 Alpha virt. eigenvalues --    1.82688   1.84099   1.85627   1.87102   1.88649
 Alpha virt. eigenvalues --    1.89545   1.91310   1.92469   1.93382   1.94865
 Alpha virt. eigenvalues --    1.96401   1.96905   2.00391   2.02999   2.03958
 Alpha virt. eigenvalues --    2.05557   2.06033   2.06567   2.07535   2.08502
 Alpha virt. eigenvalues --    2.10058   2.11634   2.11984   2.13149   2.14602
 Alpha virt. eigenvalues --    2.15760   2.16664   2.18704   2.18897   2.20298
 Alpha virt. eigenvalues --    2.21481   2.22223   2.24661   2.27044   2.28809
 Alpha virt. eigenvalues --    2.32415   2.33845   2.35988   2.36576   2.38378
 Alpha virt. eigenvalues --    2.39046   2.39514   2.40870   2.42801   2.45215
 Alpha virt. eigenvalues --    2.48210   2.50072   2.54423   2.54678   2.57865
 Alpha virt. eigenvalues --    2.60555   2.61517   2.62832   2.64240   2.68165
 Alpha virt. eigenvalues --    2.68724   2.69258   2.70967   2.72130   2.73759
 Alpha virt. eigenvalues --    2.74475   2.75276   2.76722   2.78004   2.79185
 Alpha virt. eigenvalues --    2.79701   2.81189   2.83093   2.84748   2.85696
 Alpha virt. eigenvalues --    2.87167   2.88623   2.90918   2.91609   2.92505
 Alpha virt. eigenvalues --    2.93721   2.94864   2.95823   2.96764   3.00096
 Alpha virt. eigenvalues --    3.00842   3.03264   3.06723   3.13975   3.29337
 Alpha virt. eigenvalues --    3.29636   3.32123   3.35879   3.37494   3.39386
 Alpha virt. eigenvalues --    3.40536   3.41951   3.48609   3.49394   3.49684
 Alpha virt. eigenvalues --    3.50667   3.53639   3.54148   3.54824   3.56002
 Alpha virt. eigenvalues --    3.58962   3.59385   3.61251   3.64685   4.33704
 Alpha virt. eigenvalues --    4.43866   4.45248   4.53632   4.58684   4.60719
 Alpha virt. eigenvalues --    4.64277   4.76969   4.84284   4.88743   4.93929
          Condensed to atoms (all electrons):
              1          2          3          4          5          6
     1  C    7.781635   0.550048   0.015187  -0.243339  -0.299700  -0.839014
     2  C    0.550048   8.246670   0.218993  -2.073060  -0.035472  -1.440980
     3  C    0.015187   0.218993   6.085343  -0.426575   0.100141  -0.362237
     4  C   -0.243339  -2.073060  -0.426575   9.397458   0.044151   0.849494
     5  C   -0.299700  -0.035472   0.100141   0.044151   5.922694  -0.046907
     6  C   -0.839014  -1.440980  -0.362237   0.849494  -0.046907   7.129830
     7  C   -1.017395  -0.549340  -0.185596   0.187229   0.098608   0.656080
     8  O   -0.044408   0.028284  -0.028670  -0.274233  -0.034256   0.098273
     9  C    0.136260   1.261109   0.314758  -2.383499  -0.124449  -0.490568
    10  C    0.005042  -0.111820  -0.019622   0.042047  -0.049016   0.073016
    11  C   -0.018730  -0.178945  -0.026091   0.428554   0.040292   0.027739
    12  H    0.299408  -0.038780  -0.004874   0.002689   0.006490   0.011070
    13  H    0.015237   0.026508  -0.009011   0.185854  -0.012718   0.148015
    14  H    0.029110   0.027351   0.291828  -0.033804   0.021172  -0.000144
    15  H   -0.018944  -0.029050   0.463997  -0.060508  -0.034192   0.000856
    16  H   -0.010958  -0.005990   0.015910   0.288173  -0.015658  -0.037559
    17  H   -0.098417  -0.007034  -0.060917   0.009279   0.466188   0.002992
    18  H   -0.038566  -0.018743  -0.024244   0.041674   0.331193   0.045661
    19  H   -0.108186  -0.090832   0.012340   0.027533   0.003511   0.459922
    20  H   -0.035968   0.013661  -0.006512   0.022383   0.043131   0.312198
    21  H   -0.110516  -0.008427   0.000323   0.002880   0.006838   0.012232
    22  H   -0.121327  -0.000121  -0.010506   0.002389   0.026623  -0.001791
    23  H   -0.142465  -0.017942   0.001622   0.003741  -0.002170   0.041388
    24  H   -0.021180   0.062125  -0.002289   0.051458   0.019992  -0.058150
    25  H    0.001175  -0.048283   0.004465  -0.007037  -0.011048   0.020183
    26  H   -0.000211  -0.000115   0.014003  -0.024733  -0.006180   0.002216
    27  H   -0.000549   0.007645  -0.021809   0.015529   0.003184   0.002482
    28  H    0.000119   0.004180  -0.008077   0.052457   0.001314   0.000771
    29  H    0.000574  -0.002819  -0.007399   0.011829  -0.000987   0.000420
    30  H   -0.000375  -0.000496   0.022238  -0.013955  -0.002182  -0.004163
    31  H   -0.000224  -0.004292  -0.001748   0.042667   0.001139   0.000079
              7          8          9         10         11         12
     1  C   -1.017395  -0.044408   0.136260   0.005042  -0.018730   0.299408
     2  C   -0.549340   0.028284   1.261109  -0.111820  -0.178945  -0.038780
     3  C   -0.185596  -0.028670   0.314758  -0.019622  -0.026091  -0.004874
     4  C    0.187229  -0.274233  -2.383499   0.042047   0.428554   0.002689
     5  C    0.098608  -0.034256  -0.124449  -0.049016   0.040292   0.006490
     6  C    0.656080   0.098273  -0.490568   0.073016   0.027739   0.011070
     7  C    6.189146   0.073635  -0.089958   0.004973   0.010612  -0.010678
     8  O    0.073635   8.436033   0.105373   0.015665   0.000366   0.008650
     9  C   -0.089958   0.105373   8.014143  -0.057558  -0.489055  -0.000977
    10  C    0.004973   0.015665  -0.057558   5.473417  -0.081404   0.000957
    11  C    0.010612   0.000366  -0.489055  -0.081404   5.601375   0.000433
    12  H   -0.010678   0.008650  -0.000977   0.000957   0.000433   0.554827
    13  H    0.017191  -0.033787  -0.110567   0.015612   0.010812  -0.000080
    14  H    0.002172  -0.001392   0.015954  -0.017267  -0.007889  -0.000003
    15  H    0.000356   0.007846  -0.024079   0.002764   0.007975   0.002941
    16  H    0.001385   0.013122   0.005367   0.005882   0.004249   0.000105
    17  H   -0.006196   0.000464  -0.006181   0.000599   0.002819   0.005147
    18  H   -0.008874   0.000604  -0.001347   0.002007  -0.001175  -0.004644
    19  H   -0.000923   0.010305  -0.006577   0.000296   0.001618   0.004917
    20  H   -0.013151  -0.016965  -0.000415  -0.001233   0.000079  -0.003828
    21  H    0.445699   0.000115  -0.000284   0.000014   0.000068   0.004704
    22  H    0.464374  -0.000199  -0.000224  -0.000025   0.000003  -0.003702
    23  H    0.475312   0.000203  -0.000690   0.000091  -0.000008  -0.003722
    24  H   -0.008946   0.208204  -0.012292  -0.004645  -0.000257   0.000206
    25  H    0.000104   0.000436   0.306540   0.026887  -0.022956   0.000001
    26  H   -0.000197  -0.000141  -0.073391   0.443962  -0.007109   0.000002
    27  H   -0.000036  -0.010815  -0.074898   0.444827  -0.002259   0.000000
    28  H    0.000030   0.000325  -0.128084   0.431671   0.001046   0.000000
    29  H    0.000093  -0.000052  -0.099148   0.003231   0.443134   0.000000
    30  H   -0.000106   0.000148  -0.080350  -0.000464   0.437691   0.000000
    31  H   -0.000002   0.000003  -0.145247   0.003577   0.463102   0.000000
             13         14         15         16         17         18
     1  C    0.015237   0.029110  -0.018944  -0.010958  -0.098417  -0.038566
     2  C    0.026508   0.027351  -0.029050  -0.005990  -0.007034  -0.018743
     3  C   -0.009011   0.291828   0.463997   0.015910  -0.060917  -0.024244
     4  C    0.185854  -0.033804  -0.060508   0.288173   0.009279   0.041674
     5  C   -0.012718   0.021172  -0.034192  -0.015658   0.466188   0.331193
     6  C    0.148015  -0.000144   0.000856  -0.037559   0.002992   0.045661
     7  C    0.017191   0.002172   0.000356   0.001385  -0.006196  -0.008874
     8  O   -0.033787  -0.001392   0.007846   0.013122   0.000464   0.000604
     9  C   -0.110567   0.015954  -0.024079   0.005367  -0.006181  -0.001347
    10  C    0.015612  -0.017267   0.002764   0.005882   0.000599   0.002007
    11  C    0.010812  -0.007889   0.007975   0.004249   0.002819  -0.001175
    12  H   -0.000080  -0.000003   0.002941   0.000105   0.005147  -0.004644
    13  H    0.630103  -0.000112  -0.000065  -0.003732  -0.000064   0.000014
    14  H   -0.000112   0.559602  -0.030204  -0.004810  -0.004268  -0.002861
    15  H   -0.000065  -0.030204   0.523932   0.004997   0.004531  -0.004038
    16  H   -0.003732  -0.004810   0.004997   0.585348   0.003379   0.000020
    17  H   -0.000064  -0.004268   0.004531   0.003379   0.554242  -0.030395
    18  H    0.000014  -0.002861  -0.004038   0.000020  -0.030395   0.555139
    19  H   -0.002018  -0.000028   0.000071   0.001609   0.003207  -0.000040
    20  H   -0.005627   0.000010  -0.000019   0.000091  -0.000030  -0.000137
    21  H   -0.000003   0.000000   0.000002   0.000002   0.003390  -0.000165
    22  H   -0.000003   0.000002   0.000001   0.000001  -0.000016   0.000013
    23  H    0.000002  -0.000004   0.000000   0.000000  -0.000244   0.002849
    24  H   -0.007726   0.000006  -0.000274  -0.000285   0.000001  -0.000008
    25  H    0.004898  -0.000011  -0.000027  -0.001913   0.000000   0.000002
    26  H   -0.000010  -0.000050  -0.001461  -0.000041  -0.000002   0.000004
    27  H    0.000123   0.000199  -0.000075  -0.000068  -0.000001   0.000000
    28  H    0.000001  -0.000010   0.000076  -0.000095   0.000000   0.000000
    29  H    0.000002   0.000774   0.000053  -0.000539   0.000008   0.000005
    30  H    0.000022  -0.000015   0.000002   0.003910  -0.000001   0.000000
    31  H   -0.000009  -0.000056  -0.000004   0.000225   0.000000   0.000000
             19         20         21         22         23         24
     1  C   -0.108186  -0.035968  -0.110516  -0.121327  -0.142465  -0.021180
     2  C   -0.090832   0.013661  -0.008427  -0.000121  -0.017942   0.062125
     3  C    0.012340  -0.006512   0.000323  -0.010506   0.001622  -0.002289
     4  C    0.027533   0.022383   0.002880   0.002389   0.003741   0.051458
     5  C    0.003511   0.043131   0.006838   0.026623  -0.002170   0.019992
     6  C    0.459922   0.312198   0.012232  -0.001791   0.041388  -0.058150
     7  C   -0.000923  -0.013151   0.445699   0.464374   0.475312  -0.008946
     8  O    0.010305  -0.016965   0.000115  -0.000199   0.000203   0.208204
     9  C   -0.006577  -0.000415  -0.000284  -0.000224  -0.000690  -0.012292
    10  C    0.000296  -0.001233   0.000014  -0.000025   0.000091  -0.004645
    11  C    0.001618   0.000079   0.000068   0.000003  -0.000008  -0.000257
    12  H    0.004917  -0.003828   0.004704  -0.003702  -0.003722   0.000206
    13  H   -0.002018  -0.005627  -0.000003  -0.000003   0.000002  -0.007726
    14  H   -0.000028   0.000010   0.000000   0.000002  -0.000004   0.000006
    15  H    0.000071  -0.000019   0.000002   0.000001   0.000000  -0.000274
    16  H    0.001609   0.000091   0.000002   0.000001   0.000000  -0.000285
    17  H    0.003207  -0.000030   0.003390  -0.000016  -0.000244   0.000001
    18  H   -0.000040  -0.000137  -0.000165   0.000013   0.002849  -0.000008
    19  H    0.541767  -0.027928   0.003271  -0.000224   0.000001   0.000084
    20  H   -0.027928   0.561741  -0.000107   0.002634  -0.000014   0.005128
    21  H    0.003271  -0.000107   0.535750  -0.028587  -0.027960   0.000000
    22  H   -0.000224   0.002634  -0.028587   0.535509  -0.025587   0.000009
    23  H    0.000001  -0.000014  -0.027960  -0.025587   0.532067   0.000000
    24  H    0.000084   0.005128   0.000000   0.000009   0.000000   0.399039
    25  H    0.000011  -0.000012   0.000000   0.000000   0.000000  -0.000106
    26  H    0.000000   0.000000   0.000000   0.000000   0.000000  -0.000002
    27  H    0.000000   0.000003   0.000000   0.000000   0.000000   0.000412
    28  H    0.000000   0.000000   0.000000   0.000000   0.000000  -0.000007
    29  H    0.000001   0.000000   0.000000   0.000000   0.000000   0.000000
    30  H   -0.000001   0.000000   0.000000   0.000000   0.000000   0.000000
    31  H    0.000000   0.000000   0.000000   0.000000   0.000000   0.000000
             25         26         27         28         29         30
     1  C    0.001175  -0.000211  -0.000549   0.000119   0.000574  -0.000375
     2  C   -0.048283  -0.000115   0.007645   0.004180  -0.002819  -0.000496
     3  C    0.004465   0.014003  -0.021809  -0.008077  -0.007399   0.022238
     4  C   -0.007037  -0.024733   0.015529   0.052457   0.011829  -0.013955
     5  C   -0.011048  -0.006180   0.003184   0.001314  -0.000987  -0.002182
     6  C    0.020183   0.002216   0.002482   0.000771   0.000420  -0.004163
     7  C    0.000104  -0.000197  -0.000036   0.000030   0.000093  -0.000106
     8  O    0.000436  -0.000141  -0.010815   0.000325  -0.000052   0.000148
     9  C    0.306540  -0.073391  -0.074898  -0.128084  -0.099148  -0.080350
    10  C    0.026887   0.443962   0.444827   0.431671   0.003231  -0.000464
    11  C   -0.022956  -0.007109  -0.002259   0.001046   0.443134   0.437691
    12  H    0.000001   0.000002   0.000000   0.000000   0.000000   0.000000
    13  H    0.004898  -0.000010   0.000123   0.000001   0.000002   0.000022
    14  H   -0.000011  -0.000050   0.000199  -0.000010   0.000774  -0.000015
    15  H   -0.000027  -0.001461  -0.000075   0.000076   0.000053   0.000002
    16  H   -0.001913  -0.000041  -0.000068  -0.000095  -0.000539   0.003910
    17  H    0.000000  -0.000002  -0.000001   0.000000   0.000008  -0.000001
    18  H    0.000002   0.000004   0.000000   0.000000   0.000005   0.000000
    19  H    0.000011   0.000000   0.000000   0.000000   0.000001  -0.000001
    20  H   -0.000012   0.000000   0.000003   0.000000   0.000000   0.000000
    21  H    0.000000   0.000000   0.000000   0.000000   0.000000   0.000000
    22  H    0.000000   0.000000   0.000000   0.000000   0.000000   0.000000
    23  H    0.000000   0.000000   0.000000   0.000000   0.000000   0.000000
    24  H   -0.000106  -0.000002   0.000412  -0.000007   0.000000   0.000000
    25  H    0.587482   0.004939  -0.002893  -0.004366   0.005083  -0.003821
    26  H    0.004939   0.541751  -0.026120  -0.029354   0.003234   0.000020
    27  H   -0.002893  -0.026120   0.496224  -0.024754   0.000008  -0.000137
    28  H   -0.004366  -0.029354  -0.024754   0.545419  -0.000101   0.000067
    29  H    0.005083   0.003234   0.000008  -0.000101   0.537981  -0.028614
    30  H   -0.003821   0.000020  -0.000137   0.000067  -0.028614   0.537840
    31  H   -0.003766  -0.000218   0.000068   0.002733  -0.028105  -0.025557
             31
     1  C   -0.000224
     2  C   -0.004292
     3  C   -0.001748
     4  C    0.042667
     5  C    0.001139
     6  C    0.000079
     7  C   -0.000002
     8  O    0.000003
     9  C   -0.145247
    10  C    0.003577
    11  C    0.463102
    12  H    0.000000
    13  H   -0.000009
    14  H   -0.000056
    15  H   -0.000004
    16  H    0.000225
    17  H    0.000000
    18  H    0.000000
    19  H    0.000000
    20  H    0.000000
    21  H    0.000000
    22  H    0.000000
    23  H    0.000000
    24  H    0.000000
    25  H   -0.003766
    26  H   -0.000218
    27  H    0.000068
    28  H    0.002733
    29  H   -0.028105
    30  H   -0.025557
    31  H    0.533023
 Mulliken atomic charges:
              1
     1  C    0.336678
     2  C    0.215966
     3  C   -0.354970
     4  C   -0.168726
     5  C   -0.461728
     6  C   -0.613407
     7  C   -0.735601
     8  O   -0.563134
     9  C    0.240333
    10  C   -0.653485
    11  C   -0.646093
    12  H    0.168738
    13  H    0.131135
    14  H    0.154750
    15  H    0.182538
    16  H    0.147874
    17  H    0.157521
    18  H    0.156053
    19  H    0.166293
    20  H    0.150887
    21  H    0.160760
    22  H    0.160755
    23  H    0.163528
    24  H    0.369503
    25  H    0.144031
    26  H    0.159205
    27  H    0.193709
    28  H    0.154637
    29  H    0.161335
    30  H    0.158299
    31  H    0.162613
 Sum of Mulliken atomic charges =   0.00000
 Mulliken charges with hydrogens summed into heavy atoms:
              1
     1  C    0.505416
     2  C    0.347102
     3  C   -0.017682
     4  C   -0.020851
     5  C   -0.148153
     6  C   -0.296228
     7  C   -0.250559
     8  O   -0.193631
     9  C    0.384364
    10  C   -0.145933
    11  C   -0.163846
 Sum of Mulliken charges with hydrogens summed into heavy atoms =   0.00000
 Electronic spatial extent (au):  <R**2>=           2178.5233
 Charge=              0.0000 electrons
 Dipole moment (field-independent basis, Debye):
    X=             -1.1876    Y=              0.4642    Z=              1.2282  Tot=              1.7704
 Quadrupole moment (field-independent basis, Debye-Ang):
   XX=            -73.1195   YY=            -68.7971   ZZ=            -72.5147
   XY=             -2.9244   XZ=              1.0034   YZ=              1.9397
 Traceless Quadrupole moment (field-independent basis, Debye-Ang):
   XX=             -1.6424   YY=              2.6800   ZZ=             -1.0376
   XY=             -2.9244   XZ=              1.0034   YZ=              1.9397
 Octapole moment (field-independent basis, Debye-Ang**2):
  XXX=              1.3020  YYY=             26.5208  ZZZ=             -0.1929  XYY=            -10.1411
  XXY=              7.3267  XXZ=             -0.9389  XZZ=             -2.5568  YZZ=              0.4231
  YYZ=              0.4045  XYZ=              2.0212
 Hexadecapole moment (field-independent basis, Debye-Ang**3):
 XXXX=          -2138.9965 YYYY=           -525.6832 ZZZZ=           -344.1215 XXXY=             -0.4624
 XXXZ=             11.8760 YYYX=            -27.2473 YYYZ=             -2.3259 ZZZX=              5.8089
 ZZZY=             -2.7236 XXYY=           -450.1103 XXZZ=           -415.3028 YYZZ=           -153.6284
 XXYZ=              4.4497 YYXZ=              2.2900 ZZXY=              2.6799
 N-N= 6.924210573033D+02 E-N=-2.470438479384D+03  KE= 4.637026168061D+02
 1\1\GINC-COMPUTE-10-2\SP\RmPW1PW91\6-31+G(d,p)\C10H20O1\ASAROTTI.IQUIR
 \19-Sep-2024\0\\# mPW1PW91/6-31+G** nmr scrf=(pcm,solvent=benzene)\\co
 mment\\0,1\C,0,-2.209565,-0.110402,-0.259339\C,0,-0.12659,1.08216,0.63
 2391\C,0,0.125887,-1.035357,-0.722545\C,0,0.709556,-0.196122,0.43087\C
 ,0,-1.354761,-1.370646,-0.481168\C,0,-1.606548,0.739879,0.87293\C,0,-3
 .677533,-0.45497,0.014501\O,0,0.018776,1.915557,-0.526381\C,0,2.242037
 ,0.060721,0.346222\C,0,2.738669,0.545571,-1.026106\C,0,3.033362,-1.181
 743,0.790939\H,0,-2.16051,0.489165,-1.179546\H,0,0.265855,1.616533,1.5
 1445\H,0,0.699903,-1.962712,-0.841984\H,0,0.221058,-0.479367,-1.662303
 \H,0,0.550782,-0.769576,1.358641\H,0,-1.443455,-2.023188,0.402048\H,0,
 -1.753729,-1.943422,-1.329224\H,0,-1.694136,0.200007,1.8277\H,0,-2.181
 51,1.671163,0.995695\H,0,-3.778634,-1.053657,0.929376\H,0,-4.285145,0.
 449635,0.141412\H,0,-4.109491,-1.034477,-0.81038\H,0,-0.535602,2.69990
 9,-0.391192\H,0,2.460575,0.857893,1.073787\H,0,2.622642,-0.233211,-1.7
 8982\H,0,2.191105,1.430854,-1.355712\H,0,3.806335,0.792494,-0.974317\H
 ,0,2.859973,-2.0312,0.118323\H,0,2.755673,-1.496756,1.804441\H,0,4.111
 027,-0.979088,0.787488\\Version=AM64L-G09RevC.01\State=1-A\HF=-468.282
 8539\RMSD=6.325e-09\Dipole=-0.467235,0.1826486,0.4832069\Quadrupole=-1
 .2210709,1.9925006,-0.7714298,-2.1742465,0.745995,1.4420957\PG=C01 [X(
 C10H20O1)]\\@


 IT IS WELL TO REMEMBER THAT MAN IS A PART OF NATURE AND THAT HIS WORKS,
 WHATEVER THEY MAY BE, ARE NO MORE "UNNATURAL" THAN 
 THE FLIGHT OF AN EAGLE OR THE PASSAGE OF A TORNADO.

                                    -- CHARLES MCCARRY IN "THE GREAT SOUTHWEST"
 Job cpu time:  0 days  0 hours  9 minutes 17.2 seconds.
 File lengths (MBytes):  RWF=    121 Int=      0 D2E=      0 Chk=      7 Scr=      1
 Normal termination of Gaussian 09 at Thu Sep 19 09:33:02 2024.
