 Entering Gaussian System, Link 0=g09
 Input=/home/asarotti.iquir/SCF2/04_Mentol15_OptB_NMR_benzene.gjc
 Output=/home/asarotti.iquir/SCF2/04_Mentol15_OptB_NMR_benzene.log
 Initial command:
 /opt/ohpc/pub/apps/software/Gaussian/09/EM64T.SSE4.2-enabled/g09/l1.exe /local/asarotti.iquir/Gau-3361730.inp -scrdir=/local/asarotti.iquir/
 Entering Link 1 = /opt/ohpc/pub/apps/software/Gaussian/09/EM64T.SSE4.2-enabled/g09/l1.exe PID=   3361731.
  
 Copyright (c) 1988,1990,1992,1993,1995,1998,2003,2009,2011,
            Gaussian, Inc.  All Rights Reserved.
  
 This is part of the Gaussian(R) 09 program.  It is based on
 the Gaussian(R) 03 system (copyright 2003, Gaussian, Inc.),
 the Gaussian(R) 98 system (copyright 1998, Gaussian, Inc.),
 the Gaussian(R) 94 system (copyright 1995, Gaussian, Inc.),
 the Gaussian 92(TM) system (copyright 1992, Gaussian, Inc.),
 the Gaussian 90(TM) system (copyright 1990, Gaussian, Inc.),
 the Gaussian 88(TM) system (copyright 1988, Gaussian, Inc.),
 the Gaussian 86(TM) system (copyright 1986, Carnegie Mellon
 University), and the Gaussian 82(TM) system (copyright 1983,
 Carnegie Mellon University). Gaussian is a federally registered
 trademark of Gaussian, Inc.
  
 This software contains proprietary and confidential information,
 including trade secrets, belonging to Gaussian, Inc.
  
 This software is provided under written license and may be
 used, copied, transmitted, or stored only in accord with that
 written license.
  
 The following legend is applicable only to US Government
 contracts under FAR:
  
                    RESTRICTED RIGHTS LEGEND
  
 Use, reproduction and disclosure by the US Government is
 subject to restrictions as set forth in subparagraphs (a)
 and (c) of the Commercial Computer Software - Restricted
 Rights clause in FAR 52.227-19.
  
 Gaussian, Inc.
 340 Quinnipiac St., Bldg. 40, Wallingford CT 06492
  
  
 ---------------------------------------------------------------
 Warning -- This program may not be used in any manner that
 competes with the business of Gaussian, Inc. or will provide
 assistance to any competitor of Gaussian, Inc.  The licensee
 of this program is prohibited from giving any competitor of
 Gaussian, Inc. access to this program.  By using this program,
 the user acknowledges that Gaussian, Inc. is engaged in the
 business of creating and licensing software in the field of
 computational chemistry and represents and warrants to the
 licensee that it is not a competitor of Gaussian, Inc. and that
 it will not use this program in any manner prohibited above.
 ---------------------------------------------------------------
  

 Cite this work as:
 Gaussian 09, Revision C.01,
 M. J. Frisch, G. W. Trucks, H. B. Schlegel, G. E. Scuseria, 
 M. A. Robb, J. R. Cheeseman, G. Scalmani, V. Barone, B. Mennucci, 
 G. A. Petersson, H. Nakatsuji, M. Caricato, X. Li, H. P. Hratchian, 
 A. F. Izmaylov, J. Bloino, G. Zheng, J. L. Sonnenberg, M. Hada, 
 M. Ehara, K. Toyota, R. Fukuda, J. Hasegawa, M. Ishida, T. Nakajima, 
 Y. Honda, O. Kitao, H. Nakai, T. Vreven, J. A. Montgomery, Jr., 
 J. E. Peralta, F. Ogliaro, M. Bearpark, J. J. Heyd, E. Brothers, 
 K. N. Kudin, V. N. Staroverov, T. Keith, R. Kobayashi, J. Normand, 
 K. Raghavachari, A. Rendell, J. C. Burant, S. S. Iyengar, J. Tomasi, 
 M. Cossi, N. Rega, J. M. Millam, M. Klene, J. E. Knox, J. B. Cross, 
 V. Bakken, C. Adamo, J. Jaramillo, R. Gomperts, R. E. Stratmann, 
 O. Yazyev, A. J. Austin, R. Cammi, C. Pomelli, J. W. Ochterski, 
 R. L. Martin, K. Morokuma, V. G. Zakrzewski, G. A. Voth, 
 P. Salvador, J. J. Dannenberg, S. Dapprich, A. D. Daniels, 
 O. Farkas, J. B. Foresman, J. V. Ortiz, J. Cioslowski, 
 and D. J. Fox, Gaussian, Inc., Wallingford CT, 2010.
 
 ******************************************
 Gaussian 09:  EM64L-G09RevC.01 23-Sep-2011
                19-Sep-2024 
 ******************************************
 %nprocshared=4
 Will use up to    4 processors via shared memory.
 %mem=100mw
 --------------------------------------------------
 # mPW1PW91/6-31+G** nmr scrf=(pcm,solvent=benzene)
 --------------------------------------------------
 1/38=1/1;
 2/12=2,17=6,18=5,40=1/2;
 3/5=1,6=6,7=111,11=2,16=1,25=1,30=1,70=2201,72=12,74=-7/1,2,8,3;
 4//1;
 5/5=2,38=5,53=12/2;
 8/6=1,10=90,11=11/1;
 10/13=100,45=16/2;
 6/7=2,8=2,9=2,10=2,28=1/1;
 99/9=1/99;
 -------
 comment
 -------
 Charge =  0 Multiplicity = 1
 Symbolic Z-Matrix:
 6                     2.16668   0.06343  -0.1735 
 6                    -0.12847   1.06228  -0.71487 
 6                     0.31325  -1.36353  -1.16852 
 6                    -0.7925   -0.32851  -0.83601 
 6                     1.52636  -1.33434  -0.22742 
 6                     1.10209   1.10891   0.20567 
 6                     3.37099   0.11262   0.77319 
 8                    -1.11797   2.01616  -0.31683 
 6                    -1.77162  -0.78246   0.29971 
 6                    -3.19879  -0.26594   0.03307 
 6                    -1.37821  -0.46039   1.75201 
 1                     2.5242    0.30032  -1.18909 
 1                     0.22523   1.31579  -1.73098 
 1                     0.67248  -1.16801  -2.19 
 1                    -0.12703  -2.36832  -1.1903 
 1                    -1.42395  -0.27072  -1.7332 
 1                     2.27004  -2.06916  -0.56451 
 1                     1.23181  -1.63888   0.7861 
 1                     1.54153   2.11746   0.15048 
 1                     0.7935    0.96181   1.24614 
 1                     4.1387   -0.61205   0.47629 
 1                     3.83378   1.10701   0.78023 
 1                     3.07176  -0.12226   1.80272 
 1                    -0.68371   2.8826   -0.27198 
 1                    -1.8149   -1.87957   0.21807 
 1                    -3.23161   0.82635   0.07252 
 1                    -3.55612  -0.57949  -0.95562 
 1                    -3.89934  -0.66114   0.77937 
 1                    -1.36252   0.62039   1.92206 
 1                    -0.40155  -0.86967   2.02939 
 1                    -2.11725  -0.89433   2.43696 
 
                          Input orientation:                          
 ---------------------------------------------------------------------
 Center     Atomic      Atomic             Coordinates (Angstroms)
 Number     Number       Type             X           Y           Z
 ---------------------------------------------------------------------
      1          6           0        2.166679    0.063430   -0.173502
      2          6           0       -0.128468    1.062282   -0.714866
      3          6           0        0.313245   -1.363528   -1.168518
      4          6           0       -0.792495   -0.328507   -0.836011
      5          6           0        1.526364   -1.334339   -0.227420
      6          6           0        1.102092    1.108912    0.205671
      7          6           0        3.370986    0.112620    0.773191
      8          8           0       -1.117975    2.016164   -0.316832
      9          6           0       -1.771616   -0.782455    0.299705
     10          6           0       -3.198789   -0.265937    0.033072
     11          6           0       -1.378210   -0.460386    1.752014
     12          1           0        2.524201    0.300320   -1.189086
     13          1           0        0.225226    1.315788   -1.730984
     14          1           0        0.672477   -1.168007   -2.189997
     15          1           0       -0.127029   -2.368316   -1.190296
     16          1           0       -1.423946   -0.270722   -1.733202
     17          1           0        2.270035   -2.069159   -0.564509
     18          1           0        1.231811   -1.638878    0.786104
     19          1           0        1.541526    2.117455    0.150479
     20          1           0        0.793501    0.961813    1.246136
     21          1           0        4.138702   -0.612048    0.476286
     22          1           0        3.833784    1.107008    0.780231
     23          1           0        3.071760   -0.122264    1.802719
     24          1           0       -0.683705    2.882603   -0.271981
     25          1           0       -1.814895   -1.879566    0.218065
     26          1           0       -3.231606    0.826353    0.072522
     27          1           0       -3.556116   -0.579493   -0.955620
     28          1           0       -3.899341   -0.661139    0.779369
     29          1           0       -1.362517    0.620393    1.922060
     30          1           0       -0.401553   -0.869671    2.029391
     31          1           0       -2.117247   -0.894328    2.436958
 ---------------------------------------------------------------------
                    Distance matrix (angstroms):
                    1          2          3          4          5
     1  C    0.000000
     2  C    2.560953   0.000000
     3  C    2.541945   2.507083   0.000000
     4  C    3.057653   1.545931   1.550642   0.000000
     5  C    1.538398   2.952942   1.535635   2.599844   0.000000
     6  C    1.539529   1.537479   2.936603   2.596292   2.517350
     7  C    1.532646   3.919483   3.911397   4.485387   2.549028
     8  O    3.823959   1.430890   3.767768   2.423420   4.269238
     9  C    4.055812   2.670645   2.615334   1.566716   3.385131
    10  C    5.379536   3.427893   3.870776   2.559193   4.851434
    11  C    4.067952   3.156877   3.493736   2.656751   3.621947
    12  H    1.102429   2.800379   2.767154   3.394195   2.143033
    13  H    2.786286   1.105378   2.739133   2.130831   3.313131
    14  H    2.795591   2.791364   1.100316   2.164297   2.146741
    15  H    3.494046   3.463385   1.097230   2.174669   2.174844
    16  H    3.928983   2.119474   2.128597   1.098645   3.478935
    17  H    2.170600   3.947321   2.166049   3.533083   1.098470
    18  H    2.166258   3.376320   2.177184   2.906225   1.098516
    19  H    2.171359   2.156639   3.919907   3.521867   3.472451
    20  H    2.169811   2.169251   3.386504   2.918158   2.825026
    21  H    2.183431   4.736134   4.231338   5.110697   2.800217
    22  H    2.185841   4.235181   4.721797   5.106408   3.507096
    23  H    2.181537   4.240618   4.240093   4.683791   2.824684
    24  H    4.010252   1.953971   4.452787   3.262084   4.761196
    25  H    4.447639   3.516940   2.591889   2.135922   3.414636
    26  H    5.457477   3.210157   4.347612   2.847525   5.234198
    27  H    5.811664   3.808170   3.953731   2.777571   5.189573
    28  H    6.183006   4.407085   4.693985   3.517469   5.559235
    29  H    4.142078   2.944745   4.036805   2.971917   4.097179
    30  H    3.509876   3.367189   3.313828   2.942146   3.004326
    31  H    5.107232   4.209223   4.373431   3.575954   4.535242
                    6          7          8          9         10
     6  C    0.000000
     7  C    2.542156   0.000000
     8  O    2.454549   4.996239   0.000000
     9  C    3.441556   5.241346   2.939325   0.000000
    10  C    4.518581   6.622162   3.108087   1.541008   0.000000
    11  C    3.317495   4.882755   3.237460   1.538733   2.511390
    12  H    2.149782   2.145415   4.119514   4.673644   5.879365
    13  H    2.135960   4.196941   2.072328   3.537471   4.163848
    14  H    3.332890   4.207427   4.105291   3.510108   4.554390
    15  H    3.943422   4.716613   4.579146   2.727586   3.918206
    16  H    3.470373   5.424051   2.707318   2.124960   2.503960
    17  H    3.472377   2.785982   5.313174   4.328674   5.789365
    18  H    2.811419   2.764775   4.483001   3.160794   4.699174
    19  H    1.101502   2.784611   2.702145   4.405526   5.307064
    20  H    1.095187   2.754675   2.684821   3.243151   4.349399
    21  H    3.500848   1.096670   5.930362   5.915410   7.359008
    22  H    2.791463   1.096831   5.152672   5.934769   7.204187
    23  H    2.818856   1.097558   5.159385   5.114019   6.517060
    24  H    2.561875   5.020529   0.970216   3.865621   4.041288
    25  H    4.176119   5.583040   3.993560   1.100995   2.133819
    26  H    4.344940   6.677917   2.456559   2.184364   1.093495
    27  H    5.089028   7.173043   3.618013   2.191227   1.097047
    28  H    5.336342   7.311388   4.013179   2.184493   1.097231
    29  H    3.042851   4.897324   2.649644   2.183433   2.779524
    30  H    3.082482   4.095728   3.787620   2.208278   3.489171
    31  H    4.399518   5.822608   4.129512   2.167908   2.709848
                   11         12         13         14         15
    11  C    0.000000
    12  H    4.945458   0.000000
    13  H    4.225763   2.571014   0.000000
    14  H    4.499499   2.566455   2.565144   0.000000
    15  H    3.723283   3.761734   3.740194   1.754809   0.000000
    16  H    3.490673   4.026166   2.288403   2.325677   2.525201
    17  H    4.611304   2.463560   4.123078   2.450812   2.495400
    18  H    3.022257   3.054855   4.009862   3.064596   2.506927
    19  H    4.211299   2.462126   2.432122   4.126419   4.970301
    20  H    2.644786   3.059935   3.051471   4.044476   4.227687
    21  H    5.664521   2.492487   4.889160   4.408273   4.904940
    22  H    5.528650   2.498792   4.401304   4.898143   5.625735
    23  H    4.463085   3.070716   4.760022   4.774088   4.922920
    24  H    3.969190   4.218996   2.325888   4.682463   5.359603
    25  H    2.134892   5.055663   4.262766   3.534416   2.251943
    26  H    2.812733   5.915884   3.929614   4.933389   4.630229
    27  H    3.476887   6.148075   4.300212   4.444214   3.874738
    28  H    2.709694   6.786834   5.217487   5.474995   4.585234
    29  H    1.094187   4.988813   4.043418   4.924286   4.488382
    30  H    1.094674   4.504166   4.394258   4.364147   3.561978
    31  H    1.097101   6.009860   5.267213   5.409822   4.392104
                   16         17         18         19         20
    16  H    0.000000
    17  H    4.271500   0.000000
    18  H    3.907915   1.757045   0.000000
    19  H    4.248019   4.309254   3.822300   0.000000
    20  H    3.913141   3.826928   2.677189   1.759407   0.000000
    21  H    5.995114   2.588116   3.098448   3.781754   3.776252
    22  H    5.988256   3.787040   3.782881   2.583029   3.079200
    23  H    5.721551   3.168112   2.592110   3.176138   2.583693
    24  H    3.553390   5.773223   5.023200   2.390727   2.859414
    25  H    2.559036   4.163535   3.108539   5.219799   3.991753
    26  H    2.780620   6.249628   5.148656   4.945282   4.194902
    27  H    2.290441   6.026285   5.203859   5.872217   5.112976
    28  H    3.548664   6.469137   5.223480   6.141589   4.987445
    29  H    3.762818   5.158696   3.622877   3.716606   2.285138
    30  H    3.944760   3.912093   2.192104   4.028497   2.322924
    31  H    4.273147   5.444013   3.807343   5.261696   3.651817
                   21         22         23         24         25
    21  H    0.000000
    22  H    1.772149   0.000000
    23  H    1.771349   1.771235   0.000000
    24  H    6.002341   4.966648   5.238046   0.000000
    25  H    6.092503   6.414299   5.429423   4.919145   0.000000
    26  H    7.520204   7.106290   6.604989   3.292210   3.057818
    27  H    7.826981   7.776123   7.193485   4.550189   2.469732
    28  H    8.043905   7.932690   7.066391   4.899363   2.478819
    29  H    5.820016   5.342482   4.497621   3.223693   3.059091
    30  H    4.805457   4.837948   3.560042   4.410837   2.509646
    31  H    6.562074   6.493447   5.284329   4.864011   2.446548
                   26         27         28         29         30
    26  H    0.000000
    27  H    1.771662   0.000000
    28  H    1.777114   1.770496   0.000000
    29  H    2.637556   3.812171   3.063257   0.000000
    30  H    3.836018   4.352673   3.720291   1.776306   0.000000
    31  H    3.129392   3.698520   2.444962   1.768931   1.763611
                   31
    31  H    0.000000
 Stoichiometry    C10H20O
 Framework group  C1[X(C10H20O)]
 Deg. of freedom    87
 Full point group                 C1      NOp   1
 Largest Abelian subgroup         C1      NOp   1
 Largest concise Abelian subgroup C1      NOp   1
                         Standard orientation:                         
 ---------------------------------------------------------------------
 Center     Atomic      Atomic             Coordinates (Angstroms)
 Number     Number       Type             X           Y           Z
 ---------------------------------------------------------------------
      1          6           0        2.166679    0.063430   -0.173502
      2          6           0       -0.128468    1.062282   -0.714866
      3          6           0        0.313245   -1.363528   -1.168518
      4          6           0       -0.792495   -0.328507   -0.836011
      5          6           0        1.526364   -1.334339   -0.227420
      6          6           0        1.102092    1.108912    0.205671
      7          6           0        3.370986    0.112620    0.773191
      8          8           0       -1.117975    2.016164   -0.316832
      9          6           0       -1.771616   -0.782455    0.299705
     10          6           0       -3.198789   -0.265937    0.033072
     11          6           0       -1.378210   -0.460386    1.752014
     12          1           0        2.524201    0.300320   -1.189086
     13          1           0        0.225226    1.315788   -1.730984
     14          1           0        0.672477   -1.168007   -2.189997
     15          1           0       -0.127029   -2.368316   -1.190296
     16          1           0       -1.423946   -0.270722   -1.733202
     17          1           0        2.270035   -2.069159   -0.564509
     18          1           0        1.231811   -1.638878    0.786104
     19          1           0        1.541526    2.117455    0.150479
     20          1           0        0.793501    0.961813    1.246136
     21          1           0        4.138702   -0.612048    0.476286
     22          1           0        3.833784    1.107008    0.780231
     23          1           0        3.071760   -0.122264    1.802719
     24          1           0       -0.683705    2.882603   -0.271981
     25          1           0       -1.814895   -1.879566    0.218065
     26          1           0       -3.231606    0.826353    0.072522
     27          1           0       -3.556116   -0.579493   -0.955620
     28          1           0       -3.899341   -0.661139    0.779369
     29          1           0       -1.362517    0.620393    1.922060
     30          1           0       -0.401553   -0.869671    2.029391
     31          1           0       -2.117247   -0.894328    2.436958
 ---------------------------------------------------------------------
 Rotational constants (GHZ):      1.6708742      0.7524939      0.6790885
 Standard basis: 6-31+G(d,p) (6D, 7F)
 There are   309 symmetry adapted basis functions of A   symmetry.
 Integral buffers will be    131072 words long.
 Raffenetti 2 integral format.
 Two-electron integral symmetry is turned on.
   309 basis functions,   492 primitive gaussians,   309 cartesian basis functions
    44 alpha electrons       44 beta electrons
       nuclear repulsion energy       698.9442414278 Hartrees.
 NAtoms=   31 NActive=   31 NUniq=   31 SFac= 1.00D+00 NAtFMM=   60 NAOKFM=F Big=F
 ------------------------------------------------------------------------------
 Polarizable Continuum Model (PCM)
 =================================
 Model                : PCM.
 Atomic radii         : UFF (Universal Force Field).
 Polarization charges : Total charges.
 Charge compensation  : None.
 Solution method      : Matrix inversion.
 Cavity type          : Scaled VdW (van der Waals Surface) (Alpha=1.100).
 Cavity algorithm     : GePol (No added spheres)
                        Default sphere list used, NSphG=   31.
                        Lebedev-Laikov grids with approx.  5.0 points / Ang**2.
                        Smoothing algorithm: Karplus/York (Gamma=1.0000).
                        Polarization charges: spherical gaussians, with
                                              point-specific exponents (IZeta= 3).
                        Self-potential: point-specific (ISelfS= 7).
                        Self-field    : sphere-specific E.n sum rule (ISelfD= 2).
 Solvent              : Benzene, Eps=   2.270600 Eps(inf)=   2.253301
 ------------------------------------------------------------------------------
 One-electron integrals computed using PRISM.
 NBasis=   309 RedAO= T  NBF=   309
 NBsUse=   309 1.00D-06 NBFU=   309
 Harris functional with IExCor=  908 diagonalized for initial guess.
 ExpMin= 4.38D-02 ExpMax= 5.48D+03 ExpMxC= 8.25D+02 IAcc=2 IRadAn=         4 AccDes= 0.00D+00
 HarFok:  IExCor=  908 AccDes= 0.00D+00 IRadAn=         4 IDoV= 1
 ScaDFX=  1.000000  1.000000  1.000000  1.000000
 FoFCou: FMM=F IPFlag=           0 FMFlag=      100000 FMFlg1=           0
         NFxFlg=           0 DoJE=T BraDBF=F KetDBF=T FulRan=T
         Omega=  0.000000  0.000000  1.000000  0.000000  0.000000 ICntrl=     500 IOpCl=  0
         NMat0=    1 NMatS0=    1 NMatT0=    0 NMatD0=    1 NMtDS0=    0 NMtDT0=    0
         I1Cent=           4 NGrid=           0.
 Petite list used in FoFCou.
 Initial guess orbital symmetries:
       Occupied  (A) (A) (A) (A) (A) (A) (A) (A) (A) (A) (A) (A)
                 (A) (A) (A) (A) (A) (A) (A) (A) (A) (A) (A) (A)
                 (A) (A) (A) (A) (A) (A) (A) (A) (A) (A) (A) (A)
                 (A) (A) (A) (A) (A) (A) (A) (A)
       Virtual   (A) (A) (A) (A) (A) (A) (A) (A) (A) (A) (A) (A)
                 (A) (A) (A) (A) (A) (A) (A) (A) (A) (A) (A) (A)
                 (A) (A) (A) (A) (A) (A) (A) (A) (A) (A) (A) (A)
                 (A) (A) (A) (A) (A) (A) (A) (A) (A) (A) (A) (A)
                 (A) (A) (A) (A) (A) (A) (A) (A) (A) (A) (A) (A)
                 (A) (A) (A) (A) (A) (A) (A) (A) (A) (A) (A) (A)
                 (A) (A) (A) (A) (A) (A) (A) (A) (A) (A) (A) (A)
                 (A) (A) (A) (A) (A) (A) (A) (A) (A) (A) (A) (A)
                 (A) (A) (A) (A) (A) (A) (A) (A) (A) (A) (A) (A)
                 (A) (A) (A) (A) (A) (A) (A) (A) (A) (A) (A) (A)
                 (A) (A) (A) (A) (A) (A) (A) (A) (A) (A) (A) (A)
                 (A) (A) (A) (A) (A) (A) (A) (A) (A) (A) (A) (A)
                 (A) (A) (A) (A) (A) (A) (A) (A) (A) (A) (A) (A)
                 (A) (A) (A) (A) (A) (A) (A) (A) (A) (A) (A) (A)
                 (A) (A) (A) (A) (A) (A) (A) (A) (A) (A) (A) (A)
                 (A) (A) (A) (A) (A) (A) (A) (A) (A) (A) (A) (A)
                 (A) (A) (A) (A) (A) (A) (A) (A) (A) (A) (A) (A)
                 (A) (A) (A) (A) (A) (A) (A) (A) (A) (A) (A) (A)
                 (A) (A) (A) (A) (A) (A) (A) (A) (A) (A) (A) (A)
                 (A) (A) (A) (A) (A) (A) (A) (A) (A) (A) (A) (A)
                 (A) (A) (A) (A) (A) (A) (A) (A) (A) (A) (A) (A)
                 (A) (A) (A) (A) (A) (A) (A) (A) (A) (A) (A) (A)
                 (A)
 The electronic state of the initial guess is 1-A.
 Requested convergence on RMS density matrix=1.00D-08 within 128 cycles.
 Requested convergence on MAX density matrix=1.00D-06.
 Requested convergence on             energy=1.00D-06.
 No special actions if energy rises.
 Error on total polarization charges =  0.00939
 SCF Done:  E(RmPW1PW91) =  -468.274934483     A.U. after   12 cycles
             Convg  =    0.7642D-08             -V/T =  2.0099
 Range of M.O.s used for correlation:     1   309
 NBasis=   309 NAE=    44 NBE=    44 NFC=     0 NFV=     0
 NROrb=    309 NOA=    44 NOB=    44 NVA=   265 NVB=   265

 **** Warning!!: The largest alpha MO coefficient is  0.62541183D+02

 NEqPCM:  Using equilibrium solvation (IEInf=0, Eps=   2.2706, EpsInf=   2.2533)
          Differentiating once with respect to magnetic field using GIAOs.
          Electric field/nuclear overlap derivatives assumed to be zero.
 FoFCou: FMM=F IPFlag=           0 FMFlag=    10101102 FMFlg1=           0
         NFxFlg=    40000000 DoJE=F BraDBF=F KetDBF=T FulRan=T
         Omega=  0.000000  0.000000  1.000000  0.000000  0.000000 ICntrl=    6100 IOpCl=  0
         NMat0=    1 NMatS0=    1 NMatT0=    0 NMatD0=    1 NMtDS0=    0 NMtDT0=    0
         I1Cent=           7 NGrid=        1890.
 Symmetry not used in FoFCou.
          There are     3 degrees of freedom in the 1st order CPHF.  IDoFFX=0.
      3 vectors produced by pass  0 Test12= 3.89D-13 3.33D-08 XBig12= 3.00D+01 1.14D+00.
 AX will form     3 AO Fock derivatives at one time.
      3 vectors produced by pass  1 Test12= 3.89D-13 3.33D-08 XBig12= 6.66D-02 6.34D-02.
      3 vectors produced by pass  2 Test12= 3.89D-13 3.33D-08 XBig12= 1.27D-04 2.66D-03.
      3 vectors produced by pass  3 Test12= 3.89D-13 3.33D-08 XBig12= 6.31D-07 1.81D-04.
      3 vectors produced by pass  4 Test12= 3.89D-13 3.33D-08 XBig12= 1.65D-09 7.81D-06.
      3 vectors produced by pass  5 Test12= 3.89D-13 3.33D-08 XBig12= 3.73D-12 3.15D-07.
 Inverted reduced A of dimension    18 with in-core refinement.
 Calculating GIAO nuclear magnetic shielding tensors.
 SCF GIAO Magnetic shielding tensor (ppm):
      1  C    Isotropic =   161.6361   Anisotropy =    10.3335
   XX=   161.0520   YX=     3.0845   ZX=     2.8350
   XY=     5.6359   YY=   163.8087   ZY=     2.2307
   XZ=     5.1708   YZ=     0.5168   ZZ=   160.0475
   Eigenvalues:   155.9287   160.4544   168.5250
      2  C    Isotropic =   119.7919   Anisotropy =    49.3037
   XX=   127.6616   YX=   -21.7402   ZX=    -7.6616
   XY=   -19.2022   YY=   126.4001   ZY=    10.9123
   XZ=   -11.0198   YZ=    14.6089   ZZ=   105.3140
   Eigenvalues:    99.2988   107.4159   152.6610
      3  C    Isotropic =   159.9037   Anisotropy =    17.9993
   XX=   168.9832   YX=    -2.9824   ZX=    -6.6030
   XY=    -6.3326   YY=   160.9639   ZY=     2.4649
   XZ=     0.0018   YZ=     3.0828   ZZ=   149.7640
   Eigenvalues:   148.8564   158.9515   171.9032
      4  C    Isotropic =   152.4528   Anisotropy =    19.7393
   XX=   157.2254   YX=     2.8616   ZX=   -10.7116
   XY=     1.2343   YY=   143.9989   ZY=    -4.5199
   XZ=    -5.1430   YZ=    -4.5576   ZZ=   156.1342
   Eigenvalues:   142.4591   149.2870   165.6124
      5  C    Isotropic =   164.1446   Anisotropy =    18.9777
   XX=   164.1770   YX=     5.9710   ZX=     5.2937
   XY=    10.9335   YY=   168.3266   ZY=     4.1421
   XZ=     1.2314   YZ=     4.9041   ZZ=   159.9303
   Eigenvalues:   157.4748   158.1627   176.7964
      6  C    Isotropic =   153.1066   Anisotropy =    33.0323
   XX=   166.0502   YX=   -16.9801   ZX=     8.4969
   XY=   -11.9838   YY=   149.5122   ZY=     7.5227
   XZ=     6.4956   YZ=     0.4852   ZZ=   143.7574
   Eigenvalues:   134.8727   149.3189   175.1281
      7  C    Isotropic =   173.0533   Anisotropy =    37.5050
   XX=   186.6817   YX=     1.4440   ZX=    15.4437
   XY=     0.6299   YY=   163.4082   ZY=     1.4066
   XZ=    20.6488   YZ=     2.3203   ZZ=   169.0699
   Eigenvalues:   157.6096   163.4936   198.0566
      8  O    Isotropic =   274.3950   Anisotropy =    62.5641
   XX=   272.1473   YX=    16.7860   ZX=    15.0385
   XY=    -2.9392   YY=   313.2038   ZY=    11.3949
   XZ=     7.9331   YZ=     8.3319   ZZ=   237.8339
   Eigenvalues:   233.6322   273.4485   316.1044
      9  C    Isotropic =   156.0624   Anisotropy =    25.6806
   XX=   158.9212   YX=     5.3561   ZX=   -13.9353
   XY=     5.9560   YY=   156.6660   ZY=    -3.6287
   XZ=   -14.6609   YZ=    -3.9175   ZZ=   152.5999
   Eigenvalues:   141.0916   153.9127   173.1828
     10  C    Isotropic =   168.1107   Anisotropy =    39.8029
   XX=   192.6366   YX=    -6.1784   ZX=     4.7296
   XY=   -11.6340   YY=   145.7502   ZY=    -2.3890
   XZ=     0.6328   YZ=    -4.6125   ZZ=   165.9454
   Eigenvalues:   143.7177   165.9685   194.6460
     11  C    Isotropic =   172.6414   Anisotropy =    21.7469
   XX=   174.0986   YX=     0.6173   ZX=     1.2223
   XY=     1.5006   YY=   158.9341   ZY=     3.7837
   XZ=     8.6001   YZ=     2.1110   ZZ=   184.8916
   Eigenvalues:   158.5861   172.1989   187.1394
     12  H    Isotropic =    30.1210   Anisotropy =     7.3553
   XX=    31.2330   YX=     1.2554   ZX=    -2.6273
   XY=     0.7870   YY=    26.6893   ZY=    -1.4795
   XZ=    -2.8756   YZ=    -1.3892   ZZ=    32.4407
   Eigenvalues:    26.3149    29.0236    35.0245
     13  H    Isotropic =    27.5095   Anisotropy =     4.8281
   XX=    26.3757   YX=    -0.9260   ZX=    -2.0419
   XY=    -1.1641   YY=    27.0208   ZY=    -1.5863
   XZ=    -1.0212   YZ=    -2.9725   ZZ=    29.1320
   Eigenvalues:    24.1850    27.6153    30.7282
     14  H    Isotropic =    29.9737   Anisotropy =     9.1060
   XX=    28.8006   YX=    -1.5415   ZX=    -1.8390
   XY=    -1.2680   YY=    26.1732   ZY=     2.5939
   XZ=    -1.3602   YZ=     2.1295   ZZ=    34.9474
   Eigenvalues:    25.2804    28.5964    36.0444
     15  H    Isotropic =    29.9705   Anisotropy =     8.6426
   XX=    29.6396   YX=     1.4725   ZX=     1.1700
   XY=     2.0156   YY=    33.8471   ZY=     2.8434
   XZ=     1.0265   YZ=     3.6340   ZZ=    26.4248
   Eigenvalues:    25.1677    29.0116    35.7323
     16  H    Isotropic =    29.5858   Anisotropy =     6.3658
   XX=    30.8555   YX=    -0.8474   ZX=     0.9992
   XY=    -0.2702   YY=    25.3205   ZY=    -0.0429
   XZ=     2.8148   YZ=    -0.1661   ZZ=    32.5814
   Eigenvalues:    25.2635    29.6642    33.8296
     17  H    Isotropic =    30.2661   Anisotropy =     9.5067
   XX=    31.9021   YX=    -3.8547   ZX=    -0.0728
   XY=    -4.0376   YY=    32.5621   ZY=     2.4356
   XZ=    -0.0053   YZ=     2.9737   ZZ=    26.3339
   Eigenvalues:    24.9833    29.2110    36.6038
     18  H    Isotropic =    30.2681   Anisotropy =     5.1824
   XX=    30.4895   YX=     0.1466   ZX=     0.2304
   XY=     0.2068   YY=    28.9638   ZY=    -3.6542
   XZ=    -0.6900   YZ=    -3.0105   ZZ=    31.3510
   Eigenvalues:    26.6177    30.4636    33.7230
     19  H    Isotropic =    30.2791   Anisotropy =     6.9277
   XX=    30.6997   YX=     1.5464   ZX=     0.8004
   XY=     1.4773   YY=    34.3472   ZY=    -0.2014
   XZ=     0.5632   YZ=     0.1720   ZZ=    25.7905
   Eigenvalues:    25.6918    30.2480    34.8976
     20  H    Isotropic =    29.9371   Anisotropy =     4.0813
   XX=    31.4869   YX=     1.2801   ZX=    -0.8116
   XY=     0.6166   YY=    27.0832   ZY=     0.8923
   XZ=    -1.7355   YZ=     0.3885   ZZ=    31.2412
   Eigenvalues:    26.7051    30.4483    32.6580
     21  H    Isotropic =    30.5024   Anisotropy =    10.7333
   XX=    35.9632   YX=    -4.2340   ZX=     0.1267
   XY=    -3.4979   YY=    28.8286   ZY=     1.2889
   XZ=     0.9295   YZ=     0.4523   ZZ=    26.7154
   Eigenvalues:    25.8936    27.9557    37.6579
     22  H    Isotropic =    30.6046   Anisotropy =    10.5319
   XX=    33.0446   YX=     5.0812   ZX=     2.0014
   XY=     4.1755   YY=    32.0538   ZY=     0.3490
   XZ=     2.1089   YZ=     1.4818   ZZ=    26.7153
   Eigenvalues:    26.0451    28.1428    37.6258
     23  H    Isotropic =    30.8489   Anisotropy =     7.7990
   XX=    30.0447   YX=    -0.0225   ZX=     2.3044
   XY=     0.1945   YY=    27.1728   ZY=    -1.1729
   XZ=     1.3450   YZ=    -1.2953   ZZ=    35.3292
   Eigenvalues:    26.9446    29.5538    36.0482
     24  H    Isotropic =    30.9360   Anisotropy =    17.8255
   XX=    28.4987   YX=     2.2385   ZX=    -0.7804
   XY=     3.2206   YY=    42.2633   ZY=     0.7608
   XZ=    -0.0619   YZ=     1.1325   ZZ=    22.0461
   Eigenvalues:    21.9533    28.0351    42.8197
     25  H    Isotropic =    29.7727   Anisotropy =     6.2423
   XX=    29.2169   YX=     1.4681   ZX=    -0.9969
   XY=     0.7223   YY=    33.6555   ZY=     0.9775
   XZ=    -0.7946   YZ=     0.2856   ZZ=    26.4457
   Eigenvalues:    26.0675    29.3163    33.9343
     26  H    Isotropic =    29.6615   Anisotropy =     5.7610
   XX=    31.8285   YX=    -1.8281   ZX=    -0.3658
   XY=    -0.7807   YY=    32.4301   ZY=    -0.6523
   XZ=    -0.0514   YZ=    -1.0688   ZZ=    24.7260
   Eigenvalues:    24.6136    30.8688    33.5022
     27  H    Isotropic =    30.5510   Anisotropy =     9.5111
   XX=    33.1201   YX=     1.1839   ZX=     4.8698
   XY=     0.9186   YY=    26.7361   ZY=     1.0269
   XZ=     3.3095   YZ=     1.7982   ZZ=    31.7967
   Eigenvalues:    26.3685    28.3927    36.8917
     28  H    Isotropic =    30.7757   Anisotropy =    10.7493
   XX=    36.0718   YX=     2.3862   ZX=    -3.8457
   XY=     1.5842   YY=    26.8199   ZY=    -1.0669
   XZ=    -2.7281   YZ=    -1.8752   ZZ=    29.4355
   Eigenvalues:    26.1250    28.2602    37.9419
     29  H    Isotropic =    29.9564   Anisotropy =     4.8237
   XX=    27.2396   YX=     1.4091   ZX=    -1.0520
   XY=     1.3284   YY=    31.7709   ZY=     1.1928
   XZ=    -1.2798   YZ=     2.3537   ZZ=    30.8588
   Eigenvalues:    26.2593    30.4377    33.1722
     30  H    Isotropic =    30.2068   Anisotropy =     6.7519
   XX=    33.3978   YX=    -1.7890   ZX=     0.5601
   XY=    -1.4958   YY=    25.8207   ZY=    -1.6461
   XZ=     2.1030   YZ=    -2.3192   ZZ=    31.4019
   Eigenvalues:    25.0185    30.8938    34.7080
     31  H    Isotropic =    30.6210   Anisotropy =    10.4749
   XX=    30.3523   YX=     2.2296   ZX=    -3.2543
   XY=     1.6979   YY=    27.0574   ZY=    -2.6451
   XZ=    -3.8082   YZ=    -3.0150   ZZ=    34.4534
   Eigenvalues:    25.9087    28.3501    37.6043
 End of Minotr Frequency-dependent properties file   721 does not exist.
 End of Minotr Frequency-dependent properties file   722 does not exist.

 **********************************************************************

            Population analysis using the SCF density.

 **********************************************************************

 Orbital symmetries:
       Occupied  (A) (A) (A) (A) (A) (A) (A) (A) (A) (A) (A) (A)
                 (A) (A) (A) (A) (A) (A) (A) (A) (A) (A) (A) (A)
                 (A) (A) (A) (A) (A) (A) (A) (A) (A) (A) (A) (A)
                 (A) (A) (A) (A) (A) (A) (A) (A)
       Virtual   (A) (A) (A) (A) (A) (A) (A) (A) (A) (A) (A) (A)
                 (A) (A) (A) (A) (A) (A) (A) (A) (A) (A) (A) (A)
                 (A) (A) (A) (A) (A) (A) (A) (A) (A) (A) (A) (A)
                 (A) (A) (A) (A) (A) (A) (A) (A) (A) (A) (A) (A)
                 (A) (A) (A) (A) (A) (A) (A) (A) (A) (A) (A) (A)
                 (A) (A) (A) (A) (A) (A) (A) (A) (A) (A) (A) (A)
                 (A) (A) (A) (A) (A) (A) (A) (A) (A) (A) (A) (A)
                 (A) (A) (A) (A) (A) (A) (A) (A) (A) (A) (A) (A)
                 (A) (A) (A) (A) (A) (A) (A) (A) (A) (A) (A) (A)
                 (A) (A) (A) (A) (A) (A) (A) (A) (A) (A) (A) (A)
                 (A) (A) (A) (A) (A) (A) (A) (A) (A) (A) (A) (A)
                 (A) (A) (A) (A) (A) (A) (A) (A) (A) (A) (A) (A)
                 (A) (A) (A) (A) (A) (A) (A) (A) (A) (A) (A) (A)
                 (A) (A) (A) (A) (A) (A) (A) (A) (A) (A) (A) (A)
                 (A) (A) (A) (A) (A) (A) (A) (A) (A) (A) (A) (A)
                 (A) (A) (A) (A) (A) (A) (A) (A) (A) (A) (A) (A)
                 (A) (A) (A) (A) (A) (A) (A) (A) (A) (A) (A) (A)
                 (A) (A) (A) (A) (A) (A) (A) (A) (A) (A) (A) (A)
                 (A) (A) (A) (A) (A) (A) (A) (A) (A) (A) (A) (A)
                 (A) (A) (A) (A) (A) (A) (A) (A) (A) (A) (A) (A)
                 (A) (A) (A) (A) (A) (A) (A) (A) (A) (A) (A) (A)
                 (A) (A) (A) (A) (A) (A) (A) (A) (A) (A) (A) (A)
                 (A)
 The electronic state is 1-A.
 Alpha  occ. eigenvalues --  -19.24488 -10.29602 -10.25249 -10.24732 -10.24683
 Alpha  occ. eigenvalues --  -10.24145 -10.23981 -10.23954 -10.23512 -10.22558
 Alpha  occ. eigenvalues --  -10.22104  -1.05024  -0.85945  -0.81624  -0.76777
 Alpha  occ. eigenvalues --   -0.75250  -0.70232  -0.68930  -0.63337  -0.61509
 Alpha  occ. eigenvalues --   -0.58256  -0.54676  -0.52355  -0.48941  -0.47314
 Alpha  occ. eigenvalues --   -0.45598  -0.45027  -0.43293  -0.42403  -0.40871
 Alpha  occ. eigenvalues --   -0.40220  -0.39596  -0.38988  -0.37992  -0.37157
 Alpha  occ. eigenvalues --   -0.36953  -0.35905  -0.34033  -0.33348  -0.32134
 Alpha  occ. eigenvalues --   -0.31643  -0.30983  -0.29886  -0.27807
 Alpha virt. eigenvalues --    0.00504   0.01760   0.01861   0.02246   0.03811
 Alpha virt. eigenvalues --    0.04338   0.04725   0.04898   0.05379   0.06250
 Alpha virt. eigenvalues --    0.07502   0.08033   0.08317   0.08765   0.09267
 Alpha virt. eigenvalues --    0.09385   0.09964   0.10919   0.11460   0.11758
 Alpha virt. eigenvalues --    0.12123   0.12903   0.13843   0.14173   0.15069
 Alpha virt. eigenvalues --    0.15465   0.15649   0.16519   0.16584   0.17173
 Alpha virt. eigenvalues --    0.17841   0.18485   0.18763   0.19560   0.19768
 Alpha virt. eigenvalues --    0.20227   0.20324   0.20858   0.21497   0.22103
 Alpha virt. eigenvalues --    0.22372   0.22913   0.23178   0.24690   0.25170
 Alpha virt. eigenvalues --    0.25812   0.26239   0.26630   0.27105   0.27409
 Alpha virt. eigenvalues --    0.28385   0.28604   0.28999   0.29274   0.29801
 Alpha virt. eigenvalues --    0.30594   0.31247   0.31853   0.32984   0.33168
 Alpha virt. eigenvalues --    0.34875   0.35200   0.35790   0.36995   0.37873
 Alpha virt. eigenvalues --    0.38752   0.39829   0.40749   0.41382   0.42438
 Alpha virt. eigenvalues --    0.42756   0.45795   0.47016   0.50334   0.52112
 Alpha virt. eigenvalues --    0.62748   0.64294   0.64850   0.65672   0.67109
 Alpha virt. eigenvalues --    0.68297   0.69626   0.70142   0.72570   0.72977
 Alpha virt. eigenvalues --    0.73713   0.74611   0.75050   0.75741   0.77741
 Alpha virt. eigenvalues --    0.78523   0.79784   0.82303   0.82650   0.84277
 Alpha virt. eigenvalues --    0.85324   0.88105   0.88269   0.89908   0.91241
 Alpha virt. eigenvalues --    0.94691   0.96352   0.99014   0.99848   1.00315
 Alpha virt. eigenvalues --    1.01138   1.02058   1.02688   1.04023   1.04725
 Alpha virt. eigenvalues --    1.05493   1.08468   1.09322   1.10754   1.11973
 Alpha virt. eigenvalues --    1.12282   1.14172   1.14898   1.16717   1.17109
 Alpha virt. eigenvalues --    1.17526   1.18615   1.19717   1.21699   1.24585
 Alpha virt. eigenvalues --    1.25045   1.27108   1.27495   1.32794   1.33373
 Alpha virt. eigenvalues --    1.35757   1.37019   1.40323   1.44516   1.46013
 Alpha virt. eigenvalues --    1.48200   1.49507   1.53924   1.54857   1.56805
 Alpha virt. eigenvalues --    1.59437   1.60061   1.63164   1.65240   1.68275
 Alpha virt. eigenvalues --    1.69359   1.74098   1.74876   1.77507   1.79982
 Alpha virt. eigenvalues --    1.81704   1.84047   1.85364   1.87532   1.88582
 Alpha virt. eigenvalues --    1.90043   1.90959   1.93958   1.95433   1.95506
 Alpha virt. eigenvalues --    1.96453   1.98136   1.98979   2.00594   2.03727
 Alpha virt. eigenvalues --    2.04985   2.06013   2.06163   2.08028   2.09027
 Alpha virt. eigenvalues --    2.11632   2.12121   2.13238   2.13816   2.15341
 Alpha virt. eigenvalues --    2.16616   2.17816   2.18019   2.19027   2.20445
 Alpha virt. eigenvalues --    2.21888   2.23012   2.24190   2.26272   2.29855
 Alpha virt. eigenvalues --    2.32894   2.35143   2.36132   2.37591   2.38786
 Alpha virt. eigenvalues --    2.39728   2.40533   2.42633   2.44241   2.45521
 Alpha virt. eigenvalues --    2.48662   2.49764   2.50237   2.54026   2.55820
 Alpha virt. eigenvalues --    2.59021   2.60775   2.61902   2.63807   2.65665
 Alpha virt. eigenvalues --    2.66237   2.67792   2.69454   2.71043   2.72338
 Alpha virt. eigenvalues --    2.73270   2.75446   2.77254   2.78077   2.78423
 Alpha virt. eigenvalues --    2.79215   2.81534   2.82830   2.85021   2.85560
 Alpha virt. eigenvalues --    2.87730   2.89001   2.89754   2.91667   2.91756
 Alpha virt. eigenvalues --    2.93563   2.94174   2.94793   2.97586   2.98826
 Alpha virt. eigenvalues --    3.00578   3.01033   3.09195   3.15232   3.29392
 Alpha virt. eigenvalues --    3.30463   3.32292   3.35111   3.38121   3.38833
 Alpha virt. eigenvalues --    3.41838   3.42945   3.47240   3.48900   3.50169
 Alpha virt. eigenvalues --    3.52168   3.53932   3.54404   3.55040   3.56797
 Alpha virt. eigenvalues --    3.58589   3.60044   3.61414   3.63878   4.37311
 Alpha virt. eigenvalues --    4.42283   4.49660   4.53291   4.56167   4.62264
 Alpha virt. eigenvalues --    4.65821   4.76876   4.83969   4.88413   4.92786
          Condensed to atoms (all electrons):
              1          2          3          4          5          6
     1  C    6.870766  -0.074055   0.089250   0.214883  -0.227567  -0.367609
     2  C   -0.074055   6.413546   0.567009  -0.694590   0.047276  -0.252245
     3  C    0.089250   0.567009   6.393094  -0.661935   0.055110  -0.145883
     4  C    0.214883  -0.694590  -0.661935   7.696867  -0.509937  -0.354455
     5  C   -0.227567   0.047276   0.055110  -0.509937   6.096059  -0.201950
     6  C   -0.367609  -0.252245  -0.145883  -0.354455  -0.201950   6.838734
     7  C   -0.474619  -0.201035  -0.189173   0.073709   0.141383   0.156486
     8  O    0.013901   0.284784   0.066579  -0.199141  -0.018639  -0.025200
     9  C   -0.102665  -0.035495  -0.093216  -0.272907   0.185791   0.017820
    10  C    0.018786  -0.086151  -0.092037   0.201330  -0.023039   0.055355
    11  C    0.072326   0.013426   0.062595   0.010051  -0.032778  -0.122823
    12  H    0.250380  -0.038269  -0.056729   0.034819   0.001973   0.016156
    13  H    0.018010   0.252850  -0.063607   0.046546   0.003704   0.028659
    14  H    0.004298  -0.054934   0.339473   0.018396  -0.028284   0.006249
    15  H    0.030379   0.022350   0.431274  -0.108151  -0.048305  -0.021625
    16  H   -0.014470   0.001657  -0.048212   0.275635   0.036924   0.056988
    17  H   -0.016157   0.006634   0.005287   0.036863   0.292024   0.033363
    18  H   -0.093051  -0.026691  -0.114434   0.055516   0.448035   0.016600
    19  H   -0.009151   0.027126   0.005742   0.034970   0.031027   0.262475
    20  H   -0.099076  -0.122947  -0.037338   0.059997   0.009980   0.482166
    21  H   -0.102200  -0.005089  -0.000234   0.002323   0.003327   0.024620
    22  H   -0.096283  -0.000320  -0.005829   0.002817   0.025285  -0.001655
    23  H   -0.131330   0.000199  -0.003204   0.003288   0.002269   0.007618
    24  H    0.019386   0.044726  -0.007274   0.059476   0.000495  -0.103760
    25  H    0.006648   0.009385  -0.007484  -0.051667   0.015096  -0.023019
    26  H    0.001693  -0.002601   0.000477   0.017835   0.001071  -0.010338
    27  H    0.000082   0.015145  -0.004067  -0.015551   0.000929   0.003322
    28  H   -0.000521   0.003080  -0.005404   0.033010   0.000666   0.001196
    29  H    0.005236  -0.006555   0.002473   0.007226   0.000906  -0.015558
    30  H    0.004216  -0.005318   0.021562  -0.010166  -0.014535  -0.000697
    31  H   -0.000994   0.002952   0.003877   0.023735  -0.000217   0.000534
              7          8          9         10         11         12
     1  C   -0.474619   0.013901  -0.102665   0.018786   0.072326   0.250380
     2  C   -0.201035   0.284784  -0.035495  -0.086151   0.013426  -0.038269
     3  C   -0.189173   0.066579  -0.093216  -0.092037   0.062595  -0.056729
     4  C    0.073709  -0.199141  -0.272907   0.201330   0.010051   0.034819
     5  C    0.141383  -0.018639   0.185791  -0.023039  -0.032778   0.001973
     6  C    0.156486  -0.025200   0.017820   0.055355  -0.122823   0.016156
     7  C    5.752368  -0.002482   0.031805   0.005111  -0.015281   0.059881
     8  O   -0.002482   8.334035  -0.047430  -0.014310  -0.017914  -0.000601
     9  C    0.031805  -0.047430   6.615234  -0.251771  -0.088090   0.001755
    10  C    0.005111  -0.014310  -0.251771   5.612346  -0.049002   0.000128
    11  C   -0.015281  -0.017914  -0.088090  -0.049002   5.488126  -0.001845
    12  H    0.059881  -0.000601   0.001755   0.000128  -0.001845   0.571740
    13  H    0.019516  -0.051862   0.004386   0.002476  -0.005415   0.002744
    14  H    0.012415  -0.000796   0.018216  -0.001006  -0.000530   0.003269
    15  H   -0.002889  -0.000455   0.011126  -0.002513   0.010502   0.000009
    16  H    0.001286   0.000681  -0.022465   0.006975  -0.009338  -0.000083
    17  H   -0.023785   0.000093  -0.006101   0.000162   0.000297  -0.004741
    18  H    0.021594  -0.000523   0.018451   0.001572  -0.018151   0.005114
    19  H   -0.018916  -0.011729  -0.006984  -0.001258   0.007107  -0.005094
    20  H    0.025930   0.000314   0.004005   0.001224  -0.008806   0.004799
    21  H    0.435715   0.000029   0.000882   0.000042  -0.000409  -0.003759
    22  H    0.434931   0.000003  -0.000728  -0.000060   0.000505  -0.003670
    23  H    0.470892  -0.000093  -0.000476  -0.000027   0.000307   0.004788
    24  H   -0.000682   0.201073   0.008749  -0.000972   0.003105  -0.000006
    25  H    0.000167  -0.000410   0.291914  -0.004819   0.025607  -0.000002
    26  H    0.000008  -0.004935  -0.129869   0.477158   0.004335   0.000000
    27  H    0.000073  -0.000116  -0.072738   0.426274   0.003772   0.000000
    28  H    0.000039   0.000363  -0.114378   0.441771  -0.004929   0.000000
    29  H    0.000907   0.000193  -0.122886  -0.002761   0.481471  -0.000002
    30  H   -0.003773  -0.000123  -0.038533  -0.001679   0.404618  -0.000009
    31  H   -0.000408   0.000472  -0.113292   0.003646   0.436030   0.000000
             13         14         15         16         17         18
     1  C    0.018010   0.004298   0.030379  -0.014470  -0.016157  -0.093051
     2  C    0.252850  -0.054934   0.022350   0.001657   0.006634  -0.026691
     3  C   -0.063607   0.339473   0.431274  -0.048212   0.005287  -0.114434
     4  C    0.046546   0.018396  -0.108151   0.275635   0.036863   0.055516
     5  C    0.003704  -0.028284  -0.048305   0.036924   0.292024   0.448035
     6  C    0.028659   0.006249  -0.021625   0.056988   0.033363   0.016600
     7  C    0.019516   0.012415  -0.002889   0.001286  -0.023785   0.021594
     8  O   -0.051862  -0.000796  -0.000455   0.000681   0.000093  -0.000523
     9  C    0.004386   0.018216   0.011126  -0.022465  -0.006101   0.018451
    10  C    0.002476  -0.001006  -0.002513   0.006975   0.000162   0.001572
    11  C   -0.005415  -0.000530   0.010502  -0.009338   0.000297  -0.018151
    12  H    0.002744   0.003269   0.000009  -0.000083  -0.004741   0.005114
    13  H    0.616188   0.002857  -0.000057  -0.010728  -0.000037   0.000073
    14  H    0.002857   0.553939  -0.027488  -0.007895  -0.005082   0.004800
    15  H   -0.000057  -0.027488   0.552045  -0.001856  -0.002489  -0.003292
    16  H   -0.010728  -0.007895  -0.001856   0.578249  -0.000130  -0.000133
    17  H   -0.000037  -0.005082  -0.002489  -0.000130   0.554182  -0.029891
    18  H    0.000073   0.004800  -0.003292  -0.000133  -0.029891   0.552126
    19  H   -0.008248  -0.000049   0.000011  -0.000151  -0.000135  -0.000055
    20  H    0.004785   0.000074  -0.000012  -0.000157  -0.000011   0.002105
    21  H    0.000006   0.000001  -0.000002   0.000000   0.002688  -0.000226
    22  H   -0.000003   0.000000   0.000002   0.000000   0.000014  -0.000009
    23  H   -0.000003   0.000000   0.000001   0.000000  -0.000138   0.003218
    24  H   -0.006447   0.000000   0.000005  -0.000263   0.000000   0.000001
    25  H   -0.000119   0.000309   0.004962  -0.000506  -0.000052   0.000334
    26  H   -0.000106   0.000004  -0.000001  -0.000296   0.000000   0.000001
    27  H    0.000014  -0.000013   0.000056   0.003160   0.000000  -0.000001
    28  H    0.000003   0.000002  -0.000012   0.000341   0.000000   0.000000
    29  H   -0.000025   0.000002   0.000004   0.000057  -0.000002   0.000053
    30  H   -0.000020  -0.000048   0.000106  -0.000088   0.000085   0.000937
    31  H    0.000004   0.000003  -0.000010  -0.000111  -0.000001   0.000120
             19         20         21         22         23         24
     1  C   -0.009151  -0.099076  -0.102200  -0.096283  -0.131330   0.019386
     2  C    0.027126  -0.122947  -0.005089  -0.000320   0.000199   0.044726
     3  C    0.005742  -0.037338  -0.000234  -0.005829  -0.003204  -0.007274
     4  C    0.034970   0.059997   0.002323   0.002817   0.003288   0.059476
     5  C    0.031027   0.009980   0.003327   0.025285   0.002269   0.000495
     6  C    0.262475   0.482166   0.024620  -0.001655   0.007618  -0.103760
     7  C   -0.018916   0.025930   0.435715   0.434931   0.470892  -0.000682
     8  O   -0.011729   0.000314   0.000029   0.000003  -0.000093   0.201073
     9  C   -0.006984   0.004005   0.000882  -0.000728  -0.000476   0.008749
    10  C   -0.001258   0.001224   0.000042  -0.000060  -0.000027  -0.000972
    11  C    0.007107  -0.008806  -0.000409   0.000505   0.000307   0.003105
    12  H   -0.005094   0.004799  -0.003759  -0.003670   0.004788  -0.000006
    13  H   -0.008248   0.004785   0.000006  -0.000003  -0.000003  -0.006447
    14  H   -0.000049   0.000074   0.000001   0.000000   0.000000   0.000000
    15  H    0.000011  -0.000012  -0.000002   0.000002   0.000001   0.000005
    16  H   -0.000151  -0.000157   0.000000   0.000000   0.000000  -0.000263
    17  H   -0.000135  -0.000011   0.002688   0.000014  -0.000138   0.000000
    18  H   -0.000055   0.002105  -0.000226  -0.000009   0.003218   0.000001
    19  H    0.570203  -0.032711  -0.000006   0.002821  -0.000159   0.005920
    20  H   -0.032711   0.530598   0.000003  -0.000211   0.003048  -0.001131
    21  H   -0.000006   0.000003   0.532071  -0.025523  -0.027754   0.000000
    22  H    0.002821  -0.000211  -0.025523   0.533828  -0.028002   0.000001
    23  H   -0.000159   0.003048  -0.027754  -0.028002   0.532354   0.000001
    24  H    0.005920  -0.001131   0.000000   0.000001   0.000001   0.411253
    25  H    0.000005  -0.000034   0.000000   0.000000   0.000000   0.000006
    26  H    0.000002   0.000000   0.000000   0.000000   0.000000   0.000212
    27  H    0.000000  -0.000002   0.000000   0.000000   0.000000  -0.000005
    28  H    0.000000   0.000001   0.000000   0.000000   0.000000  -0.000003
    29  H    0.000137   0.000556   0.000000   0.000000  -0.000002  -0.000033
    30  H    0.000069  -0.000936   0.000002   0.000001   0.000039  -0.000007
    31  H   -0.000004   0.000199   0.000000   0.000000   0.000001  -0.000001
             25         26         27         28         29         30
     1  C    0.006648   0.001693   0.000082  -0.000521   0.005236   0.004216
     2  C    0.009385  -0.002601   0.015145   0.003080  -0.006555  -0.005318
     3  C   -0.007484   0.000477  -0.004067  -0.005404   0.002473   0.021562
     4  C   -0.051667   0.017835  -0.015551   0.033010   0.007226  -0.010166
     5  C    0.015096   0.001071   0.000929   0.000666   0.000906  -0.014535
     6  C   -0.023019  -0.010338   0.003322   0.001196  -0.015558  -0.000697
     7  C    0.000167   0.000008   0.000073   0.000039   0.000907  -0.003773
     8  O   -0.000410  -0.004935  -0.000116   0.000363   0.000193  -0.000123
     9  C    0.291914  -0.129869  -0.072738  -0.114378  -0.122886  -0.038533
    10  C   -0.004819   0.477158   0.426274   0.441771  -0.002761  -0.001679
    11  C    0.025607   0.004335   0.003772  -0.004929   0.481471   0.404618
    12  H   -0.000002   0.000000   0.000000   0.000000  -0.000002  -0.000009
    13  H   -0.000119  -0.000106   0.000014   0.000003  -0.000025  -0.000020
    14  H    0.000309   0.000004  -0.000013   0.000002   0.000002  -0.000048
    15  H    0.004962  -0.000001   0.000056  -0.000012   0.000004   0.000106
    16  H   -0.000506  -0.000296   0.003160   0.000341   0.000057  -0.000088
    17  H   -0.000052   0.000000   0.000000   0.000000  -0.000002   0.000085
    18  H    0.000334   0.000001  -0.000001   0.000000   0.000053   0.000937
    19  H    0.000005   0.000002   0.000000   0.000000   0.000137   0.000069
    20  H   -0.000034   0.000000  -0.000002   0.000001   0.000556  -0.000936
    21  H    0.000000   0.000000   0.000000   0.000000   0.000000   0.000002
    22  H    0.000000   0.000000   0.000000   0.000000   0.000000   0.000001
    23  H    0.000000   0.000000   0.000000   0.000000  -0.000002   0.000039
    24  H    0.000006   0.000212  -0.000005  -0.000003  -0.000033  -0.000007
    25  H    0.598827   0.004964  -0.004062  -0.003748   0.005149  -0.003790
    26  H    0.004964   0.498575  -0.026594  -0.027165   0.003238  -0.000015
    27  H   -0.004062  -0.026594   0.543027  -0.026888   0.000002  -0.000149
    28  H   -0.003748  -0.027165  -0.026888   0.547564  -0.000160   0.000058
    29  H    0.005149   0.003238   0.000002  -0.000160   0.514656  -0.028719
    30  H   -0.003790  -0.000015  -0.000149   0.000058  -0.028719   0.554855
    31  H   -0.003857  -0.000102   0.000102   0.002965  -0.027020  -0.027284
             31
     1  C   -0.000994
     2  C    0.002952
     3  C    0.003877
     4  C    0.023735
     5  C   -0.000217
     6  C    0.000534
     7  C   -0.000408
     8  O    0.000472
     9  C   -0.113292
    10  C    0.003646
    11  C    0.436030
    12  H    0.000000
    13  H    0.000004
    14  H    0.000003
    15  H   -0.000010
    16  H   -0.000111
    17  H   -0.000001
    18  H    0.000120
    19  H   -0.000004
    20  H    0.000199
    21  H    0.000000
    22  H    0.000000
    23  H    0.000001
    24  H   -0.000001
    25  H   -0.003857
    26  H   -0.000102
    27  H    0.000102
    28  H    0.002965
    29  H   -0.027020
    30  H   -0.027284
    31  H    0.541712
 Mulliken atomic charges:
              1
     1  C    0.189507
     2  C   -0.105850
     3  C   -0.507743
     4  C   -0.030791
     5  C   -0.294080
     6  C   -0.361523
     7  C   -0.711173
     8  O   -0.505760
     9  C    0.309890
    10  C   -0.722951
    11  C   -0.648870
    12  H    0.157253
    13  H    0.143854
    14  H    0.161818
    15  H    0.156326
    16  H    0.154928
    17  H    0.157058
    18  H    0.155807
    19  H    0.147034
    20  H    0.173586
    21  H    0.163492
    22  H    0.162088
    23  H    0.163165
    24  H    0.366173
    25  H    0.140194
    26  H    0.192449
    27  H    0.154227
    28  H    0.152149
    29  H    0.181455
    30  H    0.149338
    31  H    0.156948
 Sum of Mulliken atomic charges =   0.00000
 Mulliken charges with hydrogens summed into heavy atoms:
              1
     1  C    0.346760
     2  C    0.038005
     3  C   -0.189599
     4  C    0.124137
     5  C    0.018786
     6  C   -0.040903
     7  C   -0.222428
     8  O   -0.139587
     9  C    0.450083
    10  C   -0.224126
    11  C   -0.161129
 Sum of Mulliken charges with hydrogens summed into heavy atoms =   0.00000
 Electronic spatial extent (au):  <R**2>=           2017.3122
 Charge=              0.0000 electrons
 Dipole moment (field-independent basis, Debye):
    X=              1.8972    Y=              0.2672    Z=             -0.4444  Tot=              1.9668
 Quadrupole moment (field-independent basis, Debye-Ang):
   XX=            -75.7647   YY=            -67.7516   ZZ=            -72.1744
   XY=              3.1476   XZ=             -0.9685   YZ=             -0.2013
 Traceless Quadrupole moment (field-independent basis, Debye-Ang):
   XX=             -3.8678   YY=              4.1453   ZZ=             -0.2775
   XY=              3.1476   XZ=             -0.9685   YZ=             -0.2013
 Octapole moment (field-independent basis, Debye-Ang**2):
  XXX=              5.7505  YYY=             29.8919  ZZZ=             -4.6859  XYY=              3.4559
  XXY=             -4.0429  XXZ=             -1.1447  XZZ=             -1.2016  YZZ=              1.9229
  YYZ=             -1.9767  XYZ=             -1.0780
 Hexadecapole moment (field-independent basis, Debye-Ang**3):
 XXXX=          -1781.4477 YYYY=           -516.1008 ZZZZ=           -455.6157 XXXY=             -0.5762
 XXXZ=            -14.3480 YYYX=             -6.5601 YYYZ=             -5.2761 ZZZX=              1.3764
 ZZZY=             -4.9986 XXYY=           -395.5453 XXZZ=           -366.7905 YYZZ=           -179.2821
 XXYZ=              1.8326 YYXZ=             -4.7557 ZZXY=              0.2974
 N-N= 6.989442414278D+02 E-N=-2.483374958380D+03  KE= 4.636941882480D+02
 1\1\GINC-COMPUTE-10-8\SP\RmPW1PW91\6-31+G(d,p)\C10H20O1\ASAROTTI.IQUIR
 \19-Sep-2024\0\\# mPW1PW91/6-31+G** nmr scrf=(pcm,solvent=benzene)\\co
 mment\\0,1\C,0,2.166679,0.06343,-0.173502\C,0,-0.128468,1.062282,-0.71
 4866\C,0,0.313245,-1.363528,-1.168518\C,0,-0.792495,-0.328507,-0.83601
 1\C,0,1.526364,-1.334339,-0.22742\C,0,1.102092,1.108912,0.205671\C,0,3
 .370986,0.11262,0.773191\O,0,-1.117975,2.016164,-0.316832\C,0,-1.77161
 6,-0.782455,0.299705\C,0,-3.198789,-0.265937,0.033072\C,0,-1.37821,-0.
 460386,1.752014\H,0,2.524201,0.30032,-1.189086\H,0,0.225226,1.315788,-
 1.730984\H,0,0.672477,-1.168007,-2.189997\H,0,-0.127029,-2.368316,-1.1
 90296\H,0,-1.423946,-0.270722,-1.733202\H,0,2.270035,-2.069159,-0.5645
 09\H,0,1.231811,-1.638878,0.786104\H,0,1.541526,2.117455,0.150479\H,0,
 0.793501,0.961813,1.246136\H,0,4.138702,-0.612048,0.476286\H,0,3.83378
 4,1.107008,0.780231\H,0,3.07176,-0.122264,1.802719\H,0,-0.683705,2.882
 603,-0.271981\H,0,-1.814895,-1.879566,0.218065\H,0,-3.231606,0.826353,
 0.072522\H,0,-3.556116,-0.579493,-0.95562\H,0,-3.899341,-0.661139,0.77
 9369\H,0,-1.362517,0.620393,1.92206\H,0,-0.401553,-0.869671,2.029391\H
 ,0,-2.117247,-0.894328,2.436958\\Version=EM64L-G09RevC.01\State=1-A\HF
 =-468.2749345\RMSD=7.642e-09\Dipole=0.7464284,0.1051274,-0.1748213\Qua
 drupole=-2.8756156,3.0819094,-0.2062937,2.3401668,-0.7200763,-0.149632
 1\PG=C01 [X(C10H20O1)]\\@


 READER, WHETHER YOU BE DILETTANTE OR PROFESSOR ... SHOW YOURSELF TO BE
 MORE HUMAN THAN CRITICAL, AND THEN YOUR PLEASURE WILL INCREASE.
                                           -- DOMENICO SCARLATTI (1738)
 Job cpu time:  0 days  0 hours 14 minutes 18.1 seconds.
 File lengths (MBytes):  RWF=    119 Int=      0 D2E=      0 Chk=      7 Scr=      1
 Normal termination of Gaussian 09 at Thu Sep 19 10:49:39 2024.
