 Entering Gaussian System, Link 0=g09
 Input=/home/asarotti.iquir/SCF2/04_Mentol16_OptB_NMR_benzene.gjc
 Output=/home/asarotti.iquir/SCF2/04_Mentol16_OptB_NMR_benzene.log
 Initial command:
 /opt/ohpc/pub/apps/software/Gaussian/09/AMD64.SSE4a-enabled/g09/l1.exe /local/asarotti.iquir/Gau-1843578.inp -scrdir=/local/asarotti.iquir/
 Entering Link 1 = /opt/ohpc/pub/apps/software/Gaussian/09/AMD64.SSE4a-enabled/g09/l1.exe PID=   1843579.
  
 Copyright (c) 1988,1990,1992,1993,1995,1998,2003,2009,2011,
            Gaussian, Inc.  All Rights Reserved.
  
 This is part of the Gaussian(R) 09 program.  It is based on
 the Gaussian(R) 03 system (copyright 2003, Gaussian, Inc.),
 the Gaussian(R) 98 system (copyright 1998, Gaussian, Inc.),
 the Gaussian(R) 94 system (copyright 1995, Gaussian, Inc.),
 the Gaussian 92(TM) system (copyright 1992, Gaussian, Inc.),
 the Gaussian 90(TM) system (copyright 1990, Gaussian, Inc.),
 the Gaussian 88(TM) system (copyright 1988, Gaussian, Inc.),
 the Gaussian 86(TM) system (copyright 1986, Carnegie Mellon
 University), and the Gaussian 82(TM) system (copyright 1983,
 Carnegie Mellon University). Gaussian is a federally registered
 trademark of Gaussian, Inc.
  
 This software contains proprietary and confidential information,
 including trade secrets, belonging to Gaussian, Inc.
  
 This software is provided under written license and may be
 used, copied, transmitted, or stored only in accord with that
 written license.
  
 The following legend is applicable only to US Government
 contracts under FAR:
  
                    RESTRICTED RIGHTS LEGEND
  
 Use, reproduction and disclosure by the US Government is
 subject to restrictions as set forth in subparagraphs (a)
 and (c) of the Commercial Computer Software - Restricted
 Rights clause in FAR 52.227-19.
  
 Gaussian, Inc.
 340 Quinnipiac St., Bldg. 40, Wallingford CT 06492
  
  
 ---------------------------------------------------------------
 Warning -- This program may not be used in any manner that
 competes with the business of Gaussian, Inc. or will provide
 assistance to any competitor of Gaussian, Inc.  The licensee
 of this program is prohibited from giving any competitor of
 Gaussian, Inc. access to this program.  By using this program,
 the user acknowledges that Gaussian, Inc. is engaged in the
 business of creating and licensing software in the field of
 computational chemistry and represents and warrants to the
 licensee that it is not a competitor of Gaussian, Inc. and that
 it will not use this program in any manner prohibited above.
 ---------------------------------------------------------------
  

 Cite this work as:
 Gaussian 09, Revision C.01,
 M. J. Frisch, G. W. Trucks, H. B. Schlegel, G. E. Scuseria, 
 M. A. Robb, J. R. Cheeseman, G. Scalmani, V. Barone, B. Mennucci, 
 G. A. Petersson, H. Nakatsuji, M. Caricato, X. Li, H. P. Hratchian, 
 A. F. Izmaylov, J. Bloino, G. Zheng, J. L. Sonnenberg, M. Hada, 
 M. Ehara, K. Toyota, R. Fukuda, J. Hasegawa, M. Ishida, T. Nakajima, 
 Y. Honda, O. Kitao, H. Nakai, T. Vreven, J. A. Montgomery, Jr., 
 J. E. Peralta, F. Ogliaro, M. Bearpark, J. J. Heyd, E. Brothers, 
 K. N. Kudin, V. N. Staroverov, T. Keith, R. Kobayashi, J. Normand, 
 K. Raghavachari, A. Rendell, J. C. Burant, S. S. Iyengar, J. Tomasi, 
 M. Cossi, N. Rega, J. M. Millam, M. Klene, J. E. Knox, J. B. Cross, 
 V. Bakken, C. Adamo, J. Jaramillo, R. Gomperts, R. E. Stratmann, 
 O. Yazyev, A. J. Austin, R. Cammi, C. Pomelli, J. W. Ochterski, 
 R. L. Martin, K. Morokuma, V. G. Zakrzewski, G. A. Voth, 
 P. Salvador, J. J. Dannenberg, S. Dapprich, A. D. Daniels, 
 O. Farkas, J. B. Foresman, J. V. Ortiz, J. Cioslowski, 
 and D. J. Fox, Gaussian, Inc., Wallingford CT, 2010.
 
 ******************************************
 Gaussian 09:  AM64L-G09RevC.01 23-Sep-2011
                19-Sep-2024 
 ******************************************
 %nprocshared=4
 Will use up to    4 processors via shared memory.
 %mem=100mw
 --------------------------------------------------
 # mPW1PW91/6-31+G** nmr scrf=(pcm,solvent=benzene)
 --------------------------------------------------
 1/38=1/1;
 2/12=2,17=6,18=5,40=1/2;
 3/5=1,6=6,7=111,11=2,16=1,25=1,30=1,70=2201,72=12,74=-7/1,2,8,3;
 4//1;
 5/5=2,38=5,53=12/2;
 8/6=1,10=90,11=11/1;
 10/13=100,45=16/2;
 6/7=2,8=2,9=2,10=2,28=1/1;
 99/9=1/99;
 -------
 comment
 -------
 Charge =  0 Multiplicity = 1
 Symbolic Z-Matrix:
 6                     2.16204   0.09121  -0.17018 
 6                    -0.13048   1.09311  -0.67136 
 6                     0.32336  -1.31874  -1.22156 
 6                    -0.78829  -0.3015   -0.85032 
 6                     1.54047  -1.31144  -0.28486 
 6                     1.09078   1.11178   0.25267 
 6                     3.36432   0.11187   0.78028 
 8                    -1.02893   2.09776  -0.18876 
 6                    -1.77043  -0.80448   0.2602 
 6                    -3.1886   -0.23345   0.0634 
 6                    -1.35058  -0.60147   1.72668 
 1                     2.51936   0.37524  -1.17371 
 1                     0.23032   1.38786  -1.67349 
 1                     0.67677  -1.08415  -2.23667 
 1                    -0.10921  -2.32589  -1.27757 
 1                    -1.4178   -0.2211   -1.75109 
 1                     2.29178  -2.02064  -0.65815 
 1                     1.25672  -1.66558   0.71529 
 1                     1.50627   2.12735   0.24111 
 1                     0.78086   0.91529   1.28461 
 1                     4.14048  -0.59139   0.45497 
 1                     3.81538   1.11014   0.83063 
 1                     3.06561  -0.16924   1.79837 
 1                    -1.75158   2.1778   -0.83059 
 1                    -1.85066  -1.88997   0.09574 
 1                    -3.21233   0.84144   0.27029 
 1                    -3.5518   -0.39752  -0.9589 
 1                    -3.89787  -0.71593   0.74678 
 1                    -1.30157   0.46275   1.97618 
 1                    -0.38225  -1.05507   1.95762 
 1                    -2.09251  -1.0649    2.38891 
 
                          Input orientation:                          
 ---------------------------------------------------------------------
 Center     Atomic      Atomic             Coordinates (Angstroms)
 Number     Number       Type             X           Y           Z
 ---------------------------------------------------------------------
      1          6           0        2.162040    0.091208   -0.170180
      2          6           0       -0.130484    1.093106   -0.671364
      3          6           0        0.323355   -1.318736   -1.221556
      4          6           0       -0.788286   -0.301495   -0.850319
      5          6           0        1.540466   -1.311441   -0.284859
      6          6           0        1.090784    1.111779    0.252671
      7          6           0        3.364320    0.111870    0.780281
      8          8           0       -1.028933    2.097763   -0.188758
      9          6           0       -1.770428   -0.804479    0.260196
     10          6           0       -3.188604   -0.233449    0.063401
     11          6           0       -1.350579   -0.601465    1.726684
     12          1           0        2.519361    0.375235   -1.173711
     13          1           0        0.230319    1.387856   -1.673485
     14          1           0        0.676770   -1.084153   -2.236671
     15          1           0       -0.109209   -2.325887   -1.277568
     16          1           0       -1.417795   -0.221095   -1.751091
     17          1           0        2.291776   -2.020637   -0.658146
     18          1           0        1.256721   -1.665584    0.715286
     19          1           0        1.506270    2.127354    0.241108
     20          1           0        0.780857    0.915292    1.284610
     21          1           0        4.140475   -0.591387    0.454965
     22          1           0        3.815384    1.110136    0.830626
     23          1           0        3.065607   -0.169237    1.798372
     24          1           0       -1.751575    2.177802   -0.830590
     25          1           0       -1.850664   -1.889969    0.095740
     26          1           0       -3.212335    0.841444    0.270286
     27          1           0       -3.551795   -0.397519   -0.958898
     28          1           0       -3.897873   -0.715925    0.746778
     29          1           0       -1.301568    0.462752    1.976184
     30          1           0       -0.382252   -1.055071    1.957621
     31          1           0       -2.092511   -1.064897    2.388908
 ---------------------------------------------------------------------
                    Distance matrix (angstroms):
                    1          2          3          4          5
     1  C    0.000000
     2  C    2.551598   0.000000
     3  C    2.544425   2.515087   0.000000
     4  C    3.053069   1.552302   1.551883   0.000000
     5  C    1.538483   2.953524   1.535843   2.600543   0.000000
     6  C    1.538817   1.531563   2.944435   2.597082   2.522528
     7  C    1.532736   3.909444   3.911707   4.480387   2.546916
     8  O    3.769472   1.431592   3.816781   2.500403   4.270096
     9  C    4.056080   2.675453   2.616099   1.565516   3.393540
    10  C    5.365571   3.413462   3.893946   2.569249   4.862865
    11  C    4.051713   3.179754   3.465350   2.654637   3.592842
    12  H    1.102463   2.790944   2.773855   3.391618   2.143168
    13  H    2.769976   1.105126   2.745639   2.137537   3.306202
    14  H    2.803192   2.800411   1.100177   2.163542   2.146439
    15  H    3.496745   3.472384   1.097544   2.177579   2.176235
    16  H    3.925816   2.133097   2.125283   1.101878   3.477068
    17  H    2.171366   3.944986   2.164435   3.532586   1.098530
    18  H    2.165634   3.384894   2.177805   2.914432   1.098280
    19  H    2.178321   2.140383   3.926093   3.515040   3.478954
    20  H    2.168685   2.165178   3.388371   2.915596   2.828176
    21  H    2.184250   4.727285   4.232040   5.106906   2.797475
    22  H    2.184805   4.222101   4.722831   5.100202   3.504796
    23  H    2.181619   4.231797   4.238073   4.678199   2.823214
    24  H    4.484016   1.957001   4.084601   2.659930   4.828061
    25  H    4.483031   3.527918   2.605366   2.132352   3.461114
    26  H    5.444334   3.232312   4.403757   2.904837   5.247115
    27  H    5.788682   3.742994   3.991794   2.767308   5.217346
    28  H    6.181814   4.413269   4.696433   3.520228   5.567266
    29  H    4.091638   2.962819   4.004949   2.972651   4.041934
    30  H    3.509261   3.404352   3.267196   2.935518   2.965010
    31  H    5.097717   4.227504   4.351585   3.574406   4.517559
                    6          7          8          9         10
     6  C    0.000000
     7  C    2.539125   0.000000
     8  O    2.379123   4.917670   0.000000
     9  C    3.443637   5.241738   3.028924   0.000000
    10  C    4.489836   6.601059   3.187838   1.541437   0.000000
    11  C    3.326886   4.861563   3.325388   1.538855   2.506049
    12  H    2.148929   2.145088   4.065418   4.674409   5.872121
    13  H    2.127603   4.179841   2.072221   3.542378   4.163465
    14  H    3.345198   4.213715   4.150658   3.507327   4.577679
    15  H    3.949577   4.716228   4.647588   2.727462   3.957167
    16  H    3.476289   5.421009   2.822977   2.123667   2.535409
    17  H    3.476205   2.786935   5.311182   4.338651   5.809409
    18  H    2.820513   2.757814   4.494918   3.179975   4.715600
    19  H    1.097340   2.793785   2.571559   4.396903   5.258024
    20  H    1.095244   2.752111   2.616179   3.242852   4.309011
    21  H    3.498902   1.096730   5.862481   5.917949   7.348254
    22  H    2.785225   1.096599   5.047966   5.932321   7.172845
    23  H    2.816047   1.097616   5.084607   5.114367   6.490717
    24  H    3.223176   5.747640   0.969828   3.175558   2.945913
    25  H    4.205619   5.627789   4.081444   1.100805   2.129598
    26  H    4.311638   6.636623   2.560528   2.188209   1.094879
    27  H    5.029853   7.149606   3.631030   2.196605   1.097234
    28  H    5.335854   7.309296   4.125880   2.184176   1.096745
    29  H    3.019119   4.829473   2.726640   2.184106   2.775669
    30  H    3.126008   4.096911   3.868527   2.207052   3.484070
    31  H    4.408491   5.809429   4.216394   2.168633   2.701982
                   11         12         13         14         15
    11  C    0.000000
    12  H    4.933829   0.000000
    13  H    4.244736   2.552428   0.000000
    14  H    4.477869   2.579697   2.574359   0.000000
    15  H    3.679696   3.770441   3.750189   1.754863   0.000000
    16  H    3.499160   4.023702   2.304566   2.316864   2.523246
    17  H    4.579106   2.461261   4.110759   2.444788   2.498317
    18  H    2.992205   3.054098   4.010389   3.064059   2.504642
    19  H    4.220779   2.469410   2.416728   4.140198   4.974686
    20  H    2.653112   3.058987   3.045773   4.050683   4.226371
    21  H    5.636404   2.492981   4.872065   4.414179   4.906116
    22  H    5.515403   2.497423   4.381825   4.906538   5.626115
    23  H    4.437866   3.070523   4.745228   4.777571   4.918537
    24  H    3.797996   4.648427   2.293990   4.302822   4.814600
    25  H    2.137827   5.083284   4.266706   3.532337   2.260236
    26  H    2.769335   5.929150   3.991075   5.011776   4.696512
    27  H    3.478404   6.123906   4.242945   4.470451   3.958731
    28  H    2.731670   6.786737   5.227383   5.473931   4.587366
    29  H    1.094171   4.952676   4.064798   4.904578   4.448048
    30  H    1.093960   4.502263   4.419057   4.326021   3.486542
    31  H    1.097166   6.002966   5.283424   5.391221   4.355069
                   16         17         18         19         20
    16  H    0.000000
    17  H    4.265419   0.000000
    18  H    3.914409   1.756052   0.000000
    19  H    4.246672   4.316423   3.830600   0.000000
    20  H    3.916749   3.831039   2.685423   1.756193   0.000000
    21  H    5.991508   2.588331   3.088317   3.791612   3.774311
    22  H    5.985282   3.786762   3.776861   2.591191   3.074479
    23  H    5.718590   3.171904   2.585382   3.182913   2.580744
    24  H    2.591030   5.831408   5.119687   3.429961   3.532876
    25  H    2.526519   4.212508   3.176480   5.237272   4.025892
    26  H    2.904364   6.272857   5.143508   4.890772   4.120666
    27  H    2.283123   6.072255   5.247162   5.779188   5.052591
    28  H    3.554574   6.479802   5.241439   6.127373   4.984039
    29  H    3.791271   5.100886   3.558725   3.696666   2.240438
    30  H    3.939849   3.863286   2.145310   4.079309   2.384973
    31  H    4.278649   5.424016   3.791990   5.268276   3.660173
                   21         22         23         24         25
    21  H    0.000000
    22  H    1.772565   0.000000
    23  H    1.771523   1.770732   0.000000
    24  H    6.636062   5.906825   5.968691   0.000000
    25  H    6.140774   6.453277   5.479927   4.173088   0.000000
    26  H    7.493392   7.055141   6.539807   2.265304   3.056997
    27  H    7.823529   7.729861   7.172493   3.144763   2.496701
    28  H    8.044607   7.926908   7.063623   3.932981   2.448121
    29  H    5.748143   5.283428   4.416248   3.319922   3.061515
    30  H    4.788323   4.855758   3.563396   4.483373   2.513939
    31  H    6.543276   6.485540   5.268503   4.582194   2.449052
                   26         27         28         29         30
    26  H    0.000000
    27  H    1.777964   0.000000
    28  H    1.767033   1.769317   0.000000
    29  H    2.589310   3.797143   3.105079   0.000000
    30  H    3.801741   4.357116   3.733732   1.774619   0.000000
    31  H    3.062140   3.712507   2.465300   1.769080   1.763828
                   31
    31  H    0.000000
 Stoichiometry    C10H20O
 Framework group  C1[X(C10H20O)]
 Deg. of freedom    87
 Full point group                 C1      NOp   1
 Largest Abelian subgroup         C1      NOp   1
 Largest concise Abelian subgroup C1      NOp   1
                         Standard orientation:                         
 ---------------------------------------------------------------------
 Center     Atomic      Atomic             Coordinates (Angstroms)
 Number     Number       Type             X           Y           Z
 ---------------------------------------------------------------------
      1          6           0        2.162040    0.091208   -0.170180
      2          6           0       -0.130484    1.093106   -0.671364
      3          6           0        0.323355   -1.318736   -1.221556
      4          6           0       -0.788286   -0.301495   -0.850319
      5          6           0        1.540466   -1.311441   -0.284859
      6          6           0        1.090784    1.111779    0.252671
      7          6           0        3.364320    0.111870    0.780281
      8          8           0       -1.028933    2.097763   -0.188758
      9          6           0       -1.770428   -0.804479    0.260196
     10          6           0       -3.188604   -0.233449    0.063401
     11          6           0       -1.350579   -0.601465    1.726684
     12          1           0        2.519361    0.375235   -1.173711
     13          1           0        0.230319    1.387856   -1.673485
     14          1           0        0.676770   -1.084153   -2.236671
     15          1           0       -0.109209   -2.325887   -1.277568
     16          1           0       -1.417795   -0.221095   -1.751091
     17          1           0        2.291776   -2.020637   -0.658146
     18          1           0        1.256721   -1.665584    0.715286
     19          1           0        1.506270    2.127354    0.241108
     20          1           0        0.780857    0.915292    1.284610
     21          1           0        4.140475   -0.591387    0.454965
     22          1           0        3.815384    1.110136    0.830626
     23          1           0        3.065607   -0.169237    1.798372
     24          1           0       -1.751575    2.177802   -0.830590
     25          1           0       -1.850664   -1.889969    0.095740
     26          1           0       -3.212335    0.841444    0.270286
     27          1           0       -3.551795   -0.397519   -0.958898
     28          1           0       -3.897873   -0.715925    0.746778
     29          1           0       -1.301568    0.462752    1.976184
     30          1           0       -0.382252   -1.055071    1.957621
     31          1           0       -2.092511   -1.064897    2.388908
 ---------------------------------------------------------------------
 Rotational constants (GHZ):      1.6558232      0.7558303      0.6797627
 Standard basis: 6-31+G(d,p) (6D, 7F)
 There are   309 symmetry adapted basis functions of A   symmetry.
 Integral buffers will be    131072 words long.
 Raffenetti 2 integral format.
 Two-electron integral symmetry is turned on.
   309 basis functions,   492 primitive gaussians,   309 cartesian basis functions
    44 alpha electrons       44 beta electrons
       nuclear repulsion energy       698.7621604350 Hartrees.
 NAtoms=   31 NActive=   31 NUniq=   31 SFac= 1.00D+00 NAtFMM=   60 NAOKFM=F Big=F
 ------------------------------------------------------------------------------
 Polarizable Continuum Model (PCM)
 =================================
 Model                : PCM.
 Atomic radii         : UFF (Universal Force Field).
 Polarization charges : Total charges.
 Charge compensation  : None.
 Solution method      : Matrix inversion.
 Cavity type          : Scaled VdW (van der Waals Surface) (Alpha=1.100).
 Cavity algorithm     : GePol (No added spheres)
                        Default sphere list used, NSphG=   31.
                        Lebedev-Laikov grids with approx.  5.0 points / Ang**2.
                        Smoothing algorithm: Karplus/York (Gamma=1.0000).
                        Polarization charges: spherical gaussians, with
                                              point-specific exponents (IZeta= 3).
                        Self-potential: point-specific (ISelfS= 7).
                        Self-field    : sphere-specific E.n sum rule (ISelfD= 2).
 Solvent              : Benzene, Eps=   2.270600 Eps(inf)=   2.253301
 ------------------------------------------------------------------------------
 One-electron integrals computed using PRISM.
 NBasis=   309 RedAO= T  NBF=   309
 NBsUse=   309 1.00D-06 NBFU=   309
 Harris functional with IExCor=  908 diagonalized for initial guess.
 ExpMin= 4.38D-02 ExpMax= 5.48D+03 ExpMxC= 8.25D+02 IAcc=2 IRadAn=         4 AccDes= 0.00D+00
 HarFok:  IExCor=  908 AccDes= 0.00D+00 IRadAn=         4 IDoV= 1
 ScaDFX=  1.000000  1.000000  1.000000  1.000000
 FoFCou: FMM=F IPFlag=           0 FMFlag=      100000 FMFlg1=           0
         NFxFlg=           0 DoJE=T BraDBF=F KetDBF=T FulRan=T
         Omega=  0.000000  0.000000  1.000000  0.000000  0.000000 ICntrl=     500 IOpCl=  0
         NMat0=    1 NMatS0=    1 NMatT0=    0 NMatD0=    1 NMtDS0=    0 NMtDT0=    0
         I1Cent=           4 NGrid=           0.
 Petite list used in FoFCou.
 Initial guess orbital symmetries:
       Occupied  (A) (A) (A) (A) (A) (A) (A) (A) (A) (A) (A) (A)
                 (A) (A) (A) (A) (A) (A) (A) (A) (A) (A) (A) (A)
                 (A) (A) (A) (A) (A) (A) (A) (A) (A) (A) (A) (A)
                 (A) (A) (A) (A) (A) (A) (A) (A)
       Virtual   (A) (A) (A) (A) (A) (A) (A) (A) (A) (A) (A) (A)
                 (A) (A) (A) (A) (A) (A) (A) (A) (A) (A) (A) (A)
                 (A) (A) (A) (A) (A) (A) (A) (A) (A) (A) (A) (A)
                 (A) (A) (A) (A) (A) (A) (A) (A) (A) (A) (A) (A)
                 (A) (A) (A) (A) (A) (A) (A) (A) (A) (A) (A) (A)
                 (A) (A) (A) (A) (A) (A) (A) (A) (A) (A) (A) (A)
                 (A) (A) (A) (A) (A) (A) (A) (A) (A) (A) (A) (A)
                 (A) (A) (A) (A) (A) (A) (A) (A) (A) (A) (A) (A)
                 (A) (A) (A) (A) (A) (A) (A) (A) (A) (A) (A) (A)
                 (A) (A) (A) (A) (A) (A) (A) (A) (A) (A) (A) (A)
                 (A) (A) (A) (A) (A) (A) (A) (A) (A) (A) (A) (A)
                 (A) (A) (A) (A) (A) (A) (A) (A) (A) (A) (A) (A)
                 (A) (A) (A) (A) (A) (A) (A) (A) (A) (A) (A) (A)
                 (A) (A) (A) (A) (A) (A) (A) (A) (A) (A) (A) (A)
                 (A) (A) (A) (A) (A) (A) (A) (A) (A) (A) (A) (A)
                 (A) (A) (A) (A) (A) (A) (A) (A) (A) (A) (A) (A)
                 (A) (A) (A) (A) (A) (A) (A) (A) (A) (A) (A) (A)
                 (A) (A) (A) (A) (A) (A) (A) (A) (A) (A) (A) (A)
                 (A) (A) (A) (A) (A) (A) (A) (A) (A) (A) (A) (A)
                 (A) (A) (A) (A) (A) (A) (A) (A) (A) (A) (A) (A)
                 (A) (A) (A) (A) (A) (A) (A) (A) (A) (A) (A) (A)
                 (A) (A) (A) (A) (A) (A) (A) (A) (A) (A) (A) (A)
                 (A)
 The electronic state of the initial guess is 1-A.
 Requested convergence on RMS density matrix=1.00D-08 within 128 cycles.
 Requested convergence on MAX density matrix=1.00D-06.
 Requested convergence on             energy=1.00D-06.
 No special actions if energy rises.
 Error on total polarization charges =  0.00933
 SCF Done:  E(RmPW1PW91) =  -468.274733767     A.U. after   12 cycles
             Convg  =    0.6807D-08             -V/T =  2.0099
 Range of M.O.s used for correlation:     1   309
 NBasis=   309 NAE=    44 NBE=    44 NFC=     0 NFV=     0
 NROrb=    309 NOA=    44 NOB=    44 NVA=   265 NVB=   265

 **** Warning!!: The largest alpha MO coefficient is  0.70773121D+02

 NEqPCM:  Using equilibrium solvation (IEInf=0, Eps=   2.2706, EpsInf=   2.2533)
          Differentiating once with respect to magnetic field using GIAOs.
          Electric field/nuclear overlap derivatives assumed to be zero.
 FoFCou: FMM=F IPFlag=           0 FMFlag=    10101102 FMFlg1=           0
         NFxFlg=    40000000 DoJE=F BraDBF=F KetDBF=T FulRan=T
         Omega=  0.000000  0.000000  1.000000  0.000000  0.000000 ICntrl=    6100 IOpCl=  0
         NMat0=    1 NMatS0=    1 NMatT0=    0 NMatD0=    1 NMtDS0=    0 NMtDT0=    0
         I1Cent=           7 NGrid=        1892.
 Symmetry not used in FoFCou.
          There are     3 degrees of freedom in the 1st order CPHF.  IDoFFX=0.
      3 vectors produced by pass  0 Test12= 3.89D-13 3.33D-08 XBig12= 2.93D+01 1.04D+00.
 AX will form     3 AO Fock derivatives at one time.
      3 vectors produced by pass  1 Test12= 3.89D-13 3.33D-08 XBig12= 6.54D-02 4.13D-02.
      3 vectors produced by pass  2 Test12= 3.89D-13 3.33D-08 XBig12= 1.34D-04 2.87D-03.
      3 vectors produced by pass  3 Test12= 3.89D-13 3.33D-08 XBig12= 4.95D-07 2.00D-04.
      3 vectors produced by pass  4 Test12= 3.89D-13 3.33D-08 XBig12= 9.59D-10 6.75D-06.
      3 vectors produced by pass  5 Test12= 3.89D-13 3.33D-08 XBig12= 2.36D-12 2.90D-07.
 Inverted reduced A of dimension    18 with in-core refinement.
 Calculating GIAO nuclear magnetic shielding tensors.
 SCF GIAO Magnetic shielding tensor (ppm):
      1  C    Isotropic =   161.5048   Anisotropy =     8.6710
   XX=   161.1168   YX=     2.6003   ZX=     2.3463
   XY=     4.6034   YY=   162.7594   ZY=     1.7641
   XZ=     5.3508   YZ=     0.1567   ZZ=   160.6382
   Eigenvalues:   156.4047   160.8241   167.2854
      2  C    Isotropic =   119.3564   Anisotropy =    49.1335
   XX=   129.7620   YX=   -18.5646   ZX=   -11.7239
   XY=   -15.0652   YY=   127.9793   ZY=    10.9959
   XZ=   -15.5216   YZ=    13.1943   ZZ=   100.3279
   Eigenvalues:    93.9083   112.0487   152.1121
      3  C    Isotropic =   160.2113   Anisotropy =    18.5393
   XX=   170.1374   YX=    -2.7215   ZX=    -5.4481
   XY=    -6.2889   YY=   160.8446   ZY=     3.4511
   XZ=     0.6162   YZ=     4.2727   ZZ=   149.6519
   Eigenvalues:   148.4018   159.6613   172.5708
      4  C    Isotropic =   149.4799   Anisotropy =    16.6689
   XX=   154.5406   YX=     3.6691   ZX=    -8.9055
   XY=     1.8255   YY=   142.3984   ZY=    -6.2269
   XZ=    -1.4726   YZ=    -6.8021   ZZ=   151.5006
   Eigenvalues:   139.0027   148.8444   160.5925
      5  C    Isotropic =   163.9731   Anisotropy =    18.9089
   XX=   164.0752   YX=     5.9017   ZX=     5.4309
   XY=    10.8661   YY=   167.8254   ZY=     4.2914
   XZ=     1.4530   YZ=     5.0787   ZZ=   160.0186
   Eigenvalues:   157.2837   158.0565   176.5790
      6  C    Isotropic =   156.5512   Anisotropy =    29.2181
   XX=   168.4267   YX=   -14.5094   ZX=     5.1450
   XY=   -12.1113   YY=   152.3501   ZY=     6.8442
   XZ=     2.7952   YZ=     0.8931   ZZ=   148.8767
   Eigenvalues:   141.1449   152.4787   176.0299
      7  C    Isotropic =   172.9860   Anisotropy =    37.6181
   XX=   186.6159   YX=     1.1222   ZX=    15.5245
   XY=    -0.0819   YY=   163.0610   ZY=     1.3614
   XZ=    20.6593   YZ=     2.2060   ZZ=   169.2810
   Eigenvalues:   157.6067   163.2865   198.0647
      8  O    Isotropic =   275.3401   Anisotropy =    80.6462
   XX=   305.9351   YX=   -21.3739   ZX=    29.7438
   XY=    -6.1409   YY=   260.2623   ZY=    -1.5629
   XZ=    41.8337   YZ=   -14.2246   ZZ=   259.8229
   Eigenvalues:   240.2996   256.6165   329.1043
      9  C    Isotropic =   156.2628   Anisotropy =    25.0101
   XX=   158.6352   YX=     5.7488   ZX=   -12.7123
   XY=     5.9999   YY=   156.8207   ZY=    -3.5183
   XZ=   -14.7682   YZ=    -3.9261   ZZ=   153.3324
   Eigenvalues:   141.9328   153.9193   172.9362
     10  C    Isotropic =   167.5278   Anisotropy =    40.4377
   XX=   191.4095   YX=    -8.6339   ZX=     5.2041
   XY=   -13.6991   YY=   147.4039   ZY=    -4.1273
   XZ=    -0.3064   YZ=    -5.5620   ZZ=   163.7700
   Eigenvalues:   143.8601   164.2370   194.4863
     11  C    Isotropic =   173.1101   Anisotropy =    20.8134
   XX=   174.7220   YX=     0.2530   ZX=     1.2748
   XY=    -0.2318   YY=   159.9085   ZY=     1.6328
   XZ=     9.2515   YZ=     0.0667   ZZ=   184.7000
   Eigenvalues:   159.8773   172.4674   186.9857
     12  H    Isotropic =    30.1368   Anisotropy =     7.5152
   XX=    31.2463   YX=     1.4944   ZX=    -2.5429
   XY=     0.9115   YY=    26.7970   ZY=    -1.7892
   XZ=    -2.9667   YZ=    -1.6720   ZZ=    32.3671
   Eigenvalues:    26.2590    29.0044    35.1470
     13  H    Isotropic =    27.5085   Anisotropy =     4.7596
   XX=    26.5012   YX=    -0.4335   ZX=    -2.2092
   XY=    -1.3662   YY=    27.4871   ZY=    -1.9258
   XZ=    -1.3213   YZ=    -2.9320   ZZ=    28.5371
   Eigenvalues:    24.1024    27.7415    30.6815
     14  H    Isotropic =    29.9584   Anisotropy =     8.9963
   XX=    28.8304   YX=    -1.4408   ZX=    -1.7353
   XY=    -1.3246   YY=    25.9758   ZY=     2.2759
   XZ=    -1.3744   YZ=     1.7333   ZZ=    35.0690
   Eigenvalues:    25.2289    28.6904    35.9559
     15  H    Isotropic =    29.9971   Anisotropy =     8.5780
   XX=    29.6641   YX=     1.4142   ZX=     1.2184
   XY=     1.8930   YY=    33.6076   ZY=     3.0655
   XZ=     1.0816   YZ=     3.9319   ZZ=    26.7196
   Eigenvalues:    25.2104    29.0652    35.7158
     16  H    Isotropic =    29.9012   Anisotropy =     5.8884
   XX=    31.1368   YX=    -1.1833   ZX=     0.7086
   XY=    -0.5045   YY=    25.7906   ZY=    -0.2739
   XZ=     2.5068   YZ=    -0.3886   ZZ=    32.7761
   Eigenvalues:    25.6595    30.2172    33.8268
     17  H    Isotropic =    30.2712   Anisotropy =     9.4639
   XX=    32.0272   YX=    -3.8100   ZX=    -0.2716
   XY=    -4.0630   YY=    32.1543   ZY=     2.6942
   XZ=    -0.2408   YZ=     3.2380   ZZ=    26.6321
   Eigenvalues:    25.0093    29.2239    36.5804
     18  H    Isotropic =    30.2736   Anisotropy =     5.2018
   XX=    30.5491   YX=     0.1812   ZX=     0.2672
   XY=     0.2272   YY=    29.1772   ZY=    -3.7730
   XZ=    -0.6909   YZ=    -3.1231   ZZ=    31.0946
   Eigenvalues:    26.5567    30.5226    33.7415
     19  H    Isotropic =    29.8701   Anisotropy =     7.6789
   XX=    30.2137   YX=     1.8304   ZX=     0.9982
   XY=     1.7110   YY=    34.2917   ZY=     0.2029
   XZ=     0.8425   YZ=     0.3777   ZZ=    25.1048
   Eigenvalues:    24.9440    29.6769    34.9894
     20  H    Isotropic =    30.0354   Anisotropy =     4.3252
   XX=    31.6038   YX=     1.3447   ZX=    -0.9108
   XY=     0.6491   YY=    26.8608   ZY=     0.7214
   XZ=    -1.6309   YZ=     0.1840   ZZ=    31.6415
   Eigenvalues:    26.5597    30.6276    32.9188
     21  H    Isotropic =    30.5203   Anisotropy =    10.7414
   XX=    36.0873   YX=    -4.1154   ZX=    -0.0196
   XY=    -3.4702   YY=    28.6561   ZY=     1.3456
   XZ=     0.7954   YZ=     0.5206   ZZ=    26.8176
   Eigenvalues:    25.9220    27.9577    37.6812
     22  H    Isotropic =    30.5342   Anisotropy =    10.5871
   XX=    32.8871   YX=     5.0468   ZX=     2.2646
   XY=     4.0818   YY=    31.9982   ZY=     0.6086
   XZ=     2.2890   YZ=     1.7269   ZZ=    26.7174
   Eigenvalues:    25.9366    28.0737    37.5923
     23  H    Isotropic =    30.8439   Anisotropy =     7.8182
   XX=    30.0514   YX=    -0.0584   ZX=     2.3083
   XY=     0.1405   YY=    27.2564   ZY=    -1.4957
   XZ=     1.3757   YZ=    -1.5959   ZZ=    35.2238
   Eigenvalues:    26.9148    29.5608    36.0560
     24  H    Isotropic =    30.7995   Anisotropy =    16.2094
   XX=    35.2449   YX=    -4.0663   ZX=     7.8771
   XY=    -5.3216   YY=    28.3806   ZY=    -1.5050
   XZ=     6.7462   YZ=    -0.8531   ZZ=    28.7730
   Eigenvalues:    23.3564    27.4364    41.6058
     25  H    Isotropic =    29.7803   Anisotropy =     6.4106
   XX=    29.3042   YX=     1.7202   ZX=    -0.9376
   XY=     0.9360   YY=    33.5820   ZY=     1.4476
   XZ=    -0.7130   YZ=     0.7470   ZZ=    26.4548
   Eigenvalues:    25.9643    29.3227    34.0541
     26  H    Isotropic =    30.1409   Anisotropy =     5.7094
   XX=    32.1353   YX=    -1.9531   ZX=    -1.0676
   XY=    -0.9537   YY=    32.7262   ZY=     0.2731
   XZ=    -0.3915   YZ=    -0.1072   ZZ=    25.5612
   Eigenvalues:    25.4804    30.9951    33.9472
     27  H    Isotropic =    30.5820   Anisotropy =     9.2558
   XX=    33.1747   YX=     0.4739   ZX=     4.9529
   XY=     0.3747   YY=    26.6214   ZY=     0.1259
   XZ=     3.2429   YZ=     0.9990   ZZ=    31.9499
   Eigenvalues:    26.5627    28.4308    36.7525
     28  H    Isotropic =    30.5646   Anisotropy =    10.8035
   XX=    35.8494   YX=     2.7555   ZX=    -3.6386
   XY=     1.8317   YY=    27.0928   ZY=    -1.3213
   XZ=    -2.6802   YZ=    -2.1142   ZZ=    28.7515
   Eigenvalues:    26.0029    27.9239    37.7669
     29  H    Isotropic =    29.9924   Anisotropy =     4.9866
   XX=    27.3869   YX=     1.6618   ZX=    -0.7383
   XY=     1.6094   YY=    31.3912   ZY=     1.3552
   XZ=    -1.0147   YZ=     2.5526   ZZ=    31.1990
   Eigenvalues:    26.3120    30.3483    33.3167
     30  H    Isotropic =    30.1832   Anisotropy =     6.9313
   XX=    33.4142   YX=    -2.0863   ZX=     0.3622
   XY=    -2.0156   YY=    26.1300   ZY=    -2.0810
   XZ=     1.8679   YZ=    -2.7277   ZZ=    31.0053
   Eigenvalues:    24.8747    30.8708    34.8040
     31  H    Isotropic =    30.6072   Anisotropy =    10.4854
   XX=    30.3405   YX=     2.3278   ZX=    -3.1218
   XY=     1.8352   YY=    27.3845   ZY=    -3.1796
   XZ=    -3.6522   YZ=    -3.4712   ZZ=    34.0966
   Eigenvalues:    25.8746    28.3496    37.5975
 End of Minotr Frequency-dependent properties file   721 does not exist.
 End of Minotr Frequency-dependent properties file   722 does not exist.

 **********************************************************************

            Population analysis using the SCF density.

 **********************************************************************

 Orbital symmetries:
       Occupied  (A) (A) (A) (A) (A) (A) (A) (A) (A) (A) (A) (A)
                 (A) (A) (A) (A) (A) (A) (A) (A) (A) (A) (A) (A)
                 (A) (A) (A) (A) (A) (A) (A) (A) (A) (A) (A) (A)
                 (A) (A) (A) (A) (A) (A) (A) (A)
       Virtual   (A) (A) (A) (A) (A) (A) (A) (A) (A) (A) (A) (A)
                 (A) (A) (A) (A) (A) (A) (A) (A) (A) (A) (A) (A)
                 (A) (A) (A) (A) (A) (A) (A) (A) (A) (A) (A) (A)
                 (A) (A) (A) (A) (A) (A) (A) (A) (A) (A) (A) (A)
                 (A) (A) (A) (A) (A) (A) (A) (A) (A) (A) (A) (A)
                 (A) (A) (A) (A) (A) (A) (A) (A) (A) (A) (A) (A)
                 (A) (A) (A) (A) (A) (A) (A) (A) (A) (A) (A) (A)
                 (A) (A) (A) (A) (A) (A) (A) (A) (A) (A) (A) (A)
                 (A) (A) (A) (A) (A) (A) (A) (A) (A) (A) (A) (A)
                 (A) (A) (A) (A) (A) (A) (A) (A) (A) (A) (A) (A)
                 (A) (A) (A) (A) (A) (A) (A) (A) (A) (A) (A) (A)
                 (A) (A) (A) (A) (A) (A) (A) (A) (A) (A) (A) (A)
                 (A) (A) (A) (A) (A) (A) (A) (A) (A) (A) (A) (A)
                 (A) (A) (A) (A) (A) (A) (A) (A) (A) (A) (A) (A)
                 (A) (A) (A) (A) (A) (A) (A) (A) (A) (A) (A) (A)
                 (A) (A) (A) (A) (A) (A) (A) (A) (A) (A) (A) (A)
                 (A) (A) (A) (A) (A) (A) (A) (A) (A) (A) (A) (A)
                 (A) (A) (A) (A) (A) (A) (A) (A) (A) (A) (A) (A)
                 (A) (A) (A) (A) (A) (A) (A) (A) (A) (A) (A) (A)
                 (A) (A) (A) (A) (A) (A) (A) (A) (A) (A) (A) (A)
                 (A) (A) (A) (A) (A) (A) (A) (A) (A) (A) (A) (A)
                 (A) (A) (A) (A) (A) (A) (A) (A) (A) (A) (A) (A)
                 (A)
 The electronic state is 1-A.
 Alpha  occ. eigenvalues --  -19.24491 -10.29570 -10.25186 -10.25020 -10.25014
 Alpha  occ. eigenvalues --  -10.24335 -10.23927 -10.23494 -10.23298 -10.23082
 Alpha  occ. eigenvalues --  -10.22786  -1.04977  -0.85938  -0.81841  -0.76915
 Alpha  occ. eigenvalues --   -0.75420  -0.70312  -0.69324  -0.62434  -0.62053
 Alpha  occ. eigenvalues --   -0.58872  -0.55286  -0.51459  -0.48977  -0.47456
 Alpha  occ. eigenvalues --   -0.45624  -0.45080  -0.42991  -0.42841  -0.42280
 Alpha  occ. eigenvalues --   -0.40413  -0.39170  -0.39067  -0.38293  -0.37175
 Alpha  occ. eigenvalues --   -0.36809  -0.34819  -0.34109  -0.33866  -0.33218
 Alpha  occ. eigenvalues --   -0.31905  -0.31122  -0.30325  -0.27378
 Alpha virt. eigenvalues --    0.00380   0.01727   0.01969   0.02221   0.04038
 Alpha virt. eigenvalues --    0.04079   0.04696   0.04930   0.05325   0.06315
 Alpha virt. eigenvalues --    0.07363   0.07908   0.08297   0.08529   0.09172
 Alpha virt. eigenvalues --    0.09516   0.10152   0.10732   0.11412   0.11756
 Alpha virt. eigenvalues --    0.12082   0.13079   0.13864   0.14019   0.14571
 Alpha virt. eigenvalues --    0.15517   0.15798   0.16117   0.16658   0.17360
 Alpha virt. eigenvalues --    0.17758   0.18307   0.18582   0.19426   0.19593
 Alpha virt. eigenvalues --    0.20076   0.20361   0.20906   0.21322   0.21833
 Alpha virt. eigenvalues --    0.22422   0.22865   0.23377   0.24490   0.25236
 Alpha virt. eigenvalues --    0.25743   0.26057   0.26280   0.26822   0.27330
 Alpha virt. eigenvalues --    0.28154   0.28317   0.28985   0.29274   0.30197
 Alpha virt. eigenvalues --    0.30593   0.31230   0.32639   0.32804   0.33349
 Alpha virt. eigenvalues --    0.34958   0.35570   0.35664   0.36506   0.37774
 Alpha virt. eigenvalues --    0.38061   0.39044   0.39816   0.41677   0.41914
 Alpha virt. eigenvalues --    0.42947   0.44481   0.47540   0.50191   0.51954
 Alpha virt. eigenvalues --    0.62190   0.64369   0.64938   0.65538   0.67002
 Alpha virt. eigenvalues --    0.68833   0.69103   0.70208   0.72254   0.72649
 Alpha virt. eigenvalues --    0.73334   0.74234   0.75160   0.75323   0.77678
 Alpha virt. eigenvalues --    0.78378   0.79322   0.81992   0.83003   0.84260
 Alpha virt. eigenvalues --    0.84893   0.88464   0.89202   0.90663   0.91855
 Alpha virt. eigenvalues --    0.94548   0.96248   0.99568   0.99745   1.00344
 Alpha virt. eigenvalues --    1.01134   1.01949   1.02852   1.04309   1.04695
 Alpha virt. eigenvalues --    1.05492   1.07978   1.09398   1.10620   1.10646
 Alpha virt. eigenvalues --    1.11848   1.14051   1.15374   1.16460   1.16782
 Alpha virt. eigenvalues --    1.16979   1.18354   1.19234   1.21068   1.24805
 Alpha virt. eigenvalues --    1.24970   1.26740   1.27856   1.32213   1.33939
 Alpha virt. eigenvalues --    1.35010   1.38838   1.40546   1.43669   1.45175
 Alpha virt. eigenvalues --    1.49230   1.49563   1.53525   1.54920   1.57693
 Alpha virt. eigenvalues --    1.58884   1.59972   1.63212   1.66049   1.66734
 Alpha virt. eigenvalues --    1.68566   1.71644   1.74993   1.77366   1.80104
 Alpha virt. eigenvalues --    1.82024   1.84353   1.85534   1.87438   1.88292
 Alpha virt. eigenvalues --    1.89380   1.90448   1.91869   1.94911   1.95853
 Alpha virt. eigenvalues --    1.96089   1.97812   1.99651   2.00926   2.03655
 Alpha virt. eigenvalues --    2.05697   2.06157   2.06271   2.07715   2.08302
 Alpha virt. eigenvalues --    2.11198   2.11869   2.13514   2.14229   2.14829
 Alpha virt. eigenvalues --    2.15537   2.16987   2.18142   2.19082   2.19903
 Alpha virt. eigenvalues --    2.22026   2.23327   2.23672   2.25134   2.30910
 Alpha virt. eigenvalues --    2.32836   2.34617   2.35374   2.37691   2.38764
 Alpha virt. eigenvalues --    2.38824   2.39699   2.41580   2.44012   2.45489
 Alpha virt. eigenvalues --    2.47880   2.50003   2.51276   2.54513   2.55867
 Alpha virt. eigenvalues --    2.59661   2.60525   2.62351   2.63736   2.65117
 Alpha virt. eigenvalues --    2.66384   2.68403   2.69380   2.71567   2.72683
 Alpha virt. eigenvalues --    2.74143   2.75941   2.77021   2.77516   2.78253
 Alpha virt. eigenvalues --    2.79716   2.81190   2.82643   2.84605   2.84656
 Alpha virt. eigenvalues --    2.87080   2.88251   2.89921   2.91537   2.92093
 Alpha virt. eigenvalues --    2.92898   2.94105   2.95086   2.97614   2.99223
 Alpha virt. eigenvalues --    3.00433   3.00962   3.08458   3.15857   3.29561
 Alpha virt. eigenvalues --    3.29683   3.31874   3.35570   3.38012   3.39213
 Alpha virt. eigenvalues --    3.41451   3.43351   3.47863   3.48705   3.50424
 Alpha virt. eigenvalues --    3.51425   3.53445   3.54071   3.54939   3.56383
 Alpha virt. eigenvalues --    3.57900   3.59383   3.60966   3.64231   4.38038
 Alpha virt. eigenvalues --    4.42983   4.49311   4.53979   4.55388   4.61572
 Alpha virt. eigenvalues --    4.64324   4.76768   4.83813   4.88209   4.92726
          Condensed to atoms (all electrons):
              1          2          3          4          5          6
     1  C    6.740651  -0.037436   0.169261   0.090349  -0.153736  -0.243211
     2  C   -0.037436   6.174833   0.333774  -0.680308   0.048999   0.016577
     3  C    0.169261   0.333774   6.576274  -0.631435   0.046464  -0.136498
     4  C    0.090349  -0.680308  -0.631435   7.794279  -0.488018  -0.203883
     5  C   -0.153736   0.048999   0.046464  -0.488018   6.181316  -0.379296
     6  C   -0.243211   0.016577  -0.136498  -0.203883  -0.379296   6.553707
     7  C   -0.509334  -0.171259  -0.178069   0.079095   0.109266   0.189402
     8  O    0.031851   0.335350   0.059751  -0.125240  -0.011995  -0.178076
     9  C   -0.145918   0.071709  -0.236096  -0.646364   0.202941   0.008974
    10  C    0.014837  -0.060363  -0.037536   0.267431  -0.028581   0.046842
    11  C    0.083977  -0.022905   0.079611   0.060818  -0.025239  -0.118120
    12  H    0.243239  -0.030655  -0.062201   0.036427   0.005507   0.011061
    13  H    0.005623   0.260305  -0.067933   0.082254   0.006079  -0.013860
    14  H    0.000606  -0.059473   0.327203   0.036835  -0.031045   0.012443
    15  H    0.029100   0.020224   0.430084  -0.105141  -0.048538  -0.017952
    16  H   -0.014643   0.053533  -0.012673   0.209471   0.046848   0.023197
    17  H   -0.014573   0.001906   0.001864   0.046204   0.282631   0.037059
    18  H   -0.101884  -0.024735  -0.118286   0.057962   0.450680   0.020998
    19  H    0.008775   0.015844   0.008257   0.037227   0.030956   0.259375
    20  H   -0.095095  -0.098087  -0.046560   0.071725   0.012605   0.447016
    21  H   -0.096794  -0.003760   0.000108   0.001732   0.004356   0.022984
    22  H   -0.097258  -0.002191  -0.005843   0.003010   0.025457  -0.001297
    23  H   -0.130859  -0.000983  -0.003965   0.003955   0.002994   0.004430
    24  H   -0.005083   0.031901   0.011257  -0.037126  -0.002969   0.041066
    25  H    0.006413   0.003187  -0.003119  -0.029646   0.014888  -0.022573
    26  H    0.002097  -0.034707   0.003080   0.057319   0.001248  -0.009373
    27  H   -0.000246   0.023778   0.000091  -0.016466   0.001450  -0.000344
    28  H   -0.000394   0.004787  -0.007800   0.026482   0.000357   0.002256
    29  H    0.008187  -0.008147   0.001581   0.005970  -0.000078  -0.016997
    30  H    0.002923  -0.007155   0.025463  -0.013267  -0.017055   0.000603
    31  H   -0.001597   0.000351   0.003325   0.027784  -0.000253   0.001498
              7          8          9         10         11         12
     1  C   -0.509334   0.031851  -0.145918   0.014837   0.083977   0.243239
     2  C   -0.171259   0.335350   0.071709  -0.060363  -0.022905  -0.030655
     3  C   -0.178069   0.059751  -0.236096  -0.037536   0.079611  -0.062201
     4  C    0.079095  -0.125240  -0.646364   0.267431   0.060818   0.036427
     5  C    0.109266  -0.011995   0.202941  -0.028581  -0.025239   0.005507
     6  C    0.189402  -0.178076   0.008974   0.046842  -0.118120   0.011061
     7  C    5.747696  -0.008928   0.030508   0.003833  -0.016491   0.064210
     8  O   -0.008928   8.249010   0.021858  -0.021431  -0.028269  -0.000813
     9  C    0.030508   0.021858   7.312131  -0.393446  -0.207179   0.001547
    10  C    0.003833  -0.021431  -0.393446   5.609015  -0.027197   0.000120
    11  C   -0.016491  -0.028269  -0.207179  -0.027197   5.521121  -0.001903
    12  H    0.064210  -0.000813   0.001547   0.000120  -0.001903   0.573729
    13  H    0.016551  -0.052650   0.029322  -0.001190  -0.007257   0.002848
    14  H    0.012102  -0.000841   0.018439  -0.000860  -0.000812   0.003240
    15  H   -0.003190  -0.000304   0.006820  -0.001550   0.011877   0.000003
    16  H    0.000790  -0.014759   0.001113  -0.007861  -0.010060  -0.000084
    17  H   -0.020885   0.000110  -0.006342   0.000388   0.000271  -0.004786
    18  H    0.023006  -0.000555   0.020212   0.001519  -0.020863   0.005174
    19  H   -0.027093   0.000647  -0.008054  -0.001679   0.008115  -0.004973
    20  H    0.026252  -0.000762   0.001829   0.002182  -0.007848   0.004874
    21  H    0.429609   0.000026   0.000922   0.000031  -0.000382  -0.003748
    22  H    0.437760   0.000001  -0.000599  -0.000053   0.000441  -0.003686
    23  H    0.474107  -0.000068  -0.000731  -0.000031   0.000561   0.004804
    24  H    0.000811   0.224251  -0.045622   0.019899  -0.001556   0.000004
    25  H   -0.000118  -0.000095   0.268664  -0.003784   0.029671  -0.000002
    26  H    0.000030   0.004052  -0.161472   0.474794   0.014479   0.000000
    27  H    0.000033  -0.002329  -0.072617   0.422032   0.000882   0.000000
    28  H    0.000057   0.000458  -0.102340   0.443561  -0.008482   0.000000
    29  H    0.000843   0.001697  -0.117366  -0.004859   0.480520  -0.000002
    30  H   -0.004080   0.000059  -0.035310  -0.001412   0.405272  -0.000009
    31  H   -0.000368   0.000405  -0.111215   0.003735   0.432563   0.000000
             13         14         15         16         17         18
     1  C    0.005623   0.000606   0.029100  -0.014643  -0.014573  -0.101884
     2  C    0.260305  -0.059473   0.020224   0.053533   0.001906  -0.024735
     3  C   -0.067933   0.327203   0.430084  -0.012673   0.001864  -0.118286
     4  C    0.082254   0.036835  -0.105141   0.209471   0.046204   0.057962
     5  C    0.006079  -0.031045  -0.048538   0.046848   0.282631   0.450680
     6  C   -0.013860   0.012443  -0.017952   0.023197   0.037059   0.020998
     7  C    0.016551   0.012102  -0.003190   0.000790  -0.020885   0.023006
     8  O   -0.052650  -0.000841  -0.000304  -0.014759   0.000110  -0.000555
     9  C    0.029322   0.018439   0.006820   0.001113  -0.006342   0.020212
    10  C   -0.001190  -0.000860  -0.001550  -0.007861   0.000388   0.001519
    11  C   -0.007257  -0.000812   0.011877  -0.010060   0.000271  -0.020863
    12  H    0.002848   0.003240   0.000003  -0.000084  -0.004786   0.005174
    13  H    0.614718   0.002848  -0.000144  -0.011156  -0.000040   0.000074
    14  H    0.002848   0.552474  -0.027707  -0.008075  -0.005203   0.004814
    15  H   -0.000144  -0.027707   0.552446  -0.001504  -0.002394  -0.003463
    16  H   -0.011156  -0.008075  -0.001504   0.596506  -0.000132  -0.000136
    17  H   -0.000040  -0.005203  -0.002394  -0.000132   0.554615  -0.030104
    18  H    0.000074   0.004814  -0.003463  -0.000136  -0.030104   0.555205
    19  H   -0.007412  -0.000047   0.000010  -0.000148  -0.000127  -0.000053
    20  H    0.004948   0.000069  -0.000017  -0.000175  -0.000029   0.002128
    21  H    0.000002   0.000001  -0.000002   0.000000   0.002693  -0.000245
    22  H    0.000001   0.000001   0.000002   0.000000   0.000009  -0.000002
    23  H   -0.000002   0.000000   0.000000   0.000000  -0.000154   0.003287
    24  H   -0.006968   0.000002  -0.000008   0.003933   0.000000   0.000002
    25  H   -0.000135   0.000264   0.005030  -0.001451  -0.000041   0.000238
    26  H   -0.000025   0.000004  -0.000002  -0.000566   0.000000   0.000001
    27  H   -0.000001  -0.000012   0.000049   0.003330   0.000000  -0.000001
    28  H    0.000004   0.000002  -0.000013   0.000307   0.000000   0.000000
    29  H   -0.000018   0.000002   0.000008   0.000008  -0.000003   0.000040
    30  H   -0.000018  -0.000052   0.000101  -0.000074   0.000101   0.001256
    31  H    0.000004   0.000003  -0.000014  -0.000117  -0.000001   0.000123
             19         20         21         22         23         24
     1  C    0.008775  -0.095095  -0.096794  -0.097258  -0.130859  -0.005083
     2  C    0.015844  -0.098087  -0.003760  -0.002191  -0.000983   0.031901
     3  C    0.008257  -0.046560   0.000108  -0.005843  -0.003965   0.011257
     4  C    0.037227   0.071725   0.001732   0.003010   0.003955  -0.037126
     5  C    0.030956   0.012605   0.004356   0.025457   0.002994  -0.002969
     6  C    0.259375   0.447016   0.022984  -0.001297   0.004430   0.041066
     7  C   -0.027093   0.026252   0.429609   0.437760   0.474107   0.000811
     8  O    0.000647  -0.000762   0.000026   0.000001  -0.000068   0.224251
     9  C   -0.008054   0.001829   0.000922  -0.000599  -0.000731  -0.045622
    10  C   -0.001679   0.002182   0.000031  -0.000053  -0.000031   0.019899
    11  C    0.008115  -0.007848  -0.000382   0.000441   0.000561  -0.001556
    12  H   -0.004973   0.004874  -0.003748  -0.003686   0.004804   0.000004
    13  H   -0.007412   0.004948   0.000002   0.000001  -0.000002  -0.006968
    14  H   -0.000047   0.000069   0.000001   0.000001   0.000000   0.000002
    15  H    0.000010  -0.000017  -0.000002   0.000002   0.000000  -0.000008
    16  H   -0.000148  -0.000175   0.000000   0.000000   0.000000   0.003933
    17  H   -0.000127  -0.000029   0.002693   0.000009  -0.000154   0.000000
    18  H   -0.000053   0.002128  -0.000245  -0.000002   0.003287   0.000002
    19  H    0.540350  -0.029356   0.000000   0.002643  -0.000164  -0.000162
    20  H   -0.029356   0.533993   0.000003  -0.000238   0.003070  -0.000077
    21  H    0.000000   0.000003   0.534213  -0.025542  -0.028099   0.000000
    22  H    0.002643  -0.000238  -0.025542   0.531240  -0.027827   0.000000
    23  H   -0.000164   0.003070  -0.028099  -0.027827   0.532959   0.000000
    24  H   -0.000162  -0.000077   0.000000   0.000000   0.000000   0.409045
    25  H    0.000005  -0.000035   0.000000   0.000000   0.000000  -0.000010
    26  H    0.000003   0.000008   0.000000   0.000000   0.000000   0.000192
    27  H    0.000000  -0.000001   0.000000   0.000000   0.000000   0.000108
    28  H    0.000000   0.000000   0.000000   0.000000   0.000000   0.000027
    29  H    0.000157   0.000523   0.000000   0.000000  -0.000005  -0.000151
    30  H    0.000052  -0.001039   0.000002   0.000001   0.000033  -0.000002
    31  H   -0.000003   0.000221   0.000000   0.000000   0.000001  -0.000003
             25         26         27         28         29         30
     1  C    0.006413   0.002097  -0.000246  -0.000394   0.008187   0.002923
     2  C    0.003187  -0.034707   0.023778   0.004787  -0.008147  -0.007155
     3  C   -0.003119   0.003080   0.000091  -0.007800   0.001581   0.025463
     4  C   -0.029646   0.057319  -0.016466   0.026482   0.005970  -0.013267
     5  C    0.014888   0.001248   0.001450   0.000357  -0.000078  -0.017055
     6  C   -0.022573  -0.009373  -0.000344   0.002256  -0.016997   0.000603
     7  C   -0.000118   0.000030   0.000033   0.000057   0.000843  -0.004080
     8  O   -0.000095   0.004052  -0.002329   0.000458   0.001697   0.000059
     9  C    0.268664  -0.161472  -0.072617  -0.102340  -0.117366  -0.035310
    10  C   -0.003784   0.474794   0.422032   0.443561  -0.004859  -0.001412
    11  C    0.029671   0.014479   0.000882  -0.008482   0.480520   0.405272
    12  H   -0.000002   0.000000   0.000000   0.000000  -0.000002  -0.000009
    13  H   -0.000135  -0.000025  -0.000001   0.000004  -0.000018  -0.000018
    14  H    0.000264   0.000004  -0.000012   0.000002   0.000002  -0.000052
    15  H    0.005030  -0.000002   0.000049  -0.000013   0.000008   0.000101
    16  H   -0.001451  -0.000566   0.003330   0.000307   0.000008  -0.000074
    17  H   -0.000041   0.000000   0.000000   0.000000  -0.000003   0.000101
    18  H    0.000238   0.000001  -0.000001   0.000000   0.000040   0.001256
    19  H    0.000005   0.000003   0.000000   0.000000   0.000157   0.000052
    20  H   -0.000035   0.000008  -0.000001   0.000000   0.000523  -0.001039
    21  H    0.000000   0.000000   0.000000   0.000000   0.000000   0.000002
    22  H    0.000000   0.000000   0.000000   0.000000   0.000000   0.000001
    23  H    0.000000   0.000000   0.000000   0.000000  -0.000005   0.000033
    24  H   -0.000010   0.000192   0.000108   0.000027  -0.000151  -0.000002
    25  H    0.594740   0.005186  -0.003475  -0.004457   0.005045  -0.003596
    26  H    0.005186   0.528780  -0.029117  -0.026378   0.003493   0.000035
    27  H   -0.003475  -0.029117   0.539900  -0.025264   0.000004  -0.000147
    28  H   -0.004457  -0.026378  -0.025264   0.531181  -0.000145   0.000027
    29  H    0.005045   0.003493   0.000004  -0.000145   0.510501  -0.027826
    30  H   -0.003596   0.000035  -0.000147   0.000027  -0.027826   0.550365
    31  H   -0.003929  -0.000102   0.000098   0.002837  -0.026995  -0.027068
             31
     1  C   -0.001597
     2  C    0.000351
     3  C    0.003325
     4  C    0.027784
     5  C   -0.000253
     6  C    0.001498
     7  C   -0.000368
     8  O    0.000405
     9  C   -0.111215
    10  C    0.003735
    11  C    0.432563
    12  H    0.000000
    13  H    0.000004
    14  H    0.000003
    15  H   -0.000014
    16  H   -0.000117
    17  H   -0.000001
    18  H    0.000123
    19  H   -0.000003
    20  H    0.000221
    21  H    0.000000
    22  H    0.000000
    23  H    0.000001
    24  H   -0.000003
    25  H   -0.003929
    26  H   -0.000102
    27  H    0.000098
    28  H    0.002837
    29  H   -0.026995
    30  H   -0.027068
    31  H    0.541038
 Mulliken atomic charges:
              1
     1  C    0.210171
     2  C   -0.154895
     3  C   -0.529433
     4  C   -0.019436
     5  C   -0.288239
     6  C   -0.358007
     7  C   -0.706146
     8  O   -0.482411
     9  C    0.293681
    10  C   -0.718385
    11  C   -0.625616
    12  H    0.156077
    13  H    0.143226
    14  H    0.162776
    15  H    0.156191
    16  H    0.144577
    17  H    0.156963
    18  H    0.153606
    19  H    0.166855
    20  H    0.167873
    21  H    0.161893
    22  H    0.163970
    23  H    0.162686
    24  H    0.357240
    25  H    0.143133
    26  H    0.166940
    27  H    0.158267
    28  H    0.162928
    29  H    0.184013
    30  H    0.151820
    31  H    0.157680
 Sum of Mulliken atomic charges =   0.00000
 Mulliken charges with hydrogens summed into heavy atoms:
              1
     1  C    0.366248
     2  C   -0.011669
     3  C   -0.210466
     4  C    0.125141
     5  C    0.022330
     6  C   -0.023279
     7  C   -0.217597
     8  O   -0.125171
     9  C    0.436815
    10  C   -0.230249
    11  C   -0.132104
 Sum of Mulliken charges with hydrogens summed into heavy atoms =   0.00000
 Electronic spatial extent (au):  <R**2>=           2015.7778
 Charge=              0.0000 electrons
 Dipole moment (field-independent basis, Debye):
    X=             -0.0740    Y=             -1.1704    Z=             -1.5198  Tot=              1.9196
 Quadrupole moment (field-independent basis, Debye-Ang):
   XX=            -70.0784   YY=            -75.4254   ZZ=            -70.6095
   XY=             -0.0225   XZ=              1.7384   YZ=             -2.8068
 Traceless Quadrupole moment (field-independent basis, Debye-Ang):
   XX=              1.9593   YY=             -3.3876   ZZ=              1.4283
   XY=             -0.0225   XZ=              1.7384   YZ=             -2.8068
 Octapole moment (field-independent basis, Debye-Ang**2):
  XXX=             -7.5760  YYY=             -2.2309  ZZZ=             -5.2776  XYY=             -1.8568
  XXY=              6.9724  XXZ=             -6.1609  XZZ=             -4.2411  YZZ=              5.3186
  YYZ=             -6.4951  XYZ=              5.7720
 Hexadecapole moment (field-independent basis, Debye-Ang**3):
 XXXX=          -1746.1150 YYYY=           -632.6089 ZZZZ=           -455.3437 XXXY=            -20.3122
 XXXZ=             -5.3202 YYYX=             -7.3728 YYYZ=            -12.6241 ZZZX=              3.9459
 ZZZY=             -8.3892 XXYY=           -368.9882 XXZZ=           -360.1013 YYZZ=           -172.2376
 XXYZ=            -11.2664 YYXZ=              9.3554 ZZXY=             -6.7211
 N-N= 6.987621604350D+02 E-N=-2.482884481644D+03  KE= 4.636922823971D+02
 1\1\GINC-COMPUTE-10-2\SP\RmPW1PW91\6-31+G(d,p)\C10H20O1\ASAROTTI.IQUIR
 \19-Sep-2024\0\\# mPW1PW91/6-31+G** nmr scrf=(pcm,solvent=benzene)\\co
 mment\\0,1\C,0,2.16204,0.091208,-0.17018\C,0,-0.130484,1.093106,-0.671
 364\C,0,0.323355,-1.318736,-1.221556\C,0,-0.788286,-0.301495,-0.850319
 \C,0,1.540466,-1.311441,-0.284859\C,0,1.090784,1.111779,0.252671\C,0,3
 .36432,0.11187,0.780281\O,0,-1.028933,2.097763,-0.188758\C,0,-1.770428
 ,-0.804479,0.260196\C,0,-3.188604,-0.233449,0.063401\C,0,-1.350579,-0.
 601465,1.726684\H,0,2.519361,0.375235,-1.173711\H,0,0.230319,1.387856,
 -1.673485\H,0,0.67677,-1.084153,-2.236671\H,0,-0.109209,-2.325887,-1.2
 77568\H,0,-1.417795,-0.221095,-1.751091\H,0,2.291776,-2.020637,-0.6581
 46\H,0,1.256721,-1.665584,0.715286\H,0,1.50627,2.127354,0.241108\H,0,0
 .780857,0.915292,1.28461\H,0,4.140475,-0.591387,0.454965\H,0,3.815384,
 1.110136,0.830626\H,0,3.065607,-0.169237,1.798372\H,0,-1.751575,2.1778
 02,-0.83059\H,0,-1.850664,-1.889969,0.09574\H,0,-3.212335,0.841444,0.2
 70286\H,0,-3.551795,-0.397519,-0.958898\H,0,-3.897873,-0.715925,0.7467
 78\H,0,-1.301568,0.462752,1.976184\H,0,-0.382252,-1.055071,1.957621\H,
 0,-2.092511,-1.064897,2.388908\\Version=AM64L-G09RevC.01\State=1-A\HF=
 -468.2747338\RMSD=6.807e-09\Dipole=-0.0291328,-0.4604569,-0.59792\Quad
 rupole=1.4567163,-2.5186288,1.0619125,-0.016761,1.2924395,-2.0868098\P
 G=C01 [X(C10H20O1)]\\@


 MOM AND DAD WENT TO ALPHA CENTAURI AND ALL
 I GOT WAS THIS DUMB T-SHIRT.
 Job cpu time:  0 days  0 hours  9 minutes 50.3 seconds.
 File lengths (MBytes):  RWF=    119 Int=      0 D2E=      0 Chk=      7 Scr=      1
 Normal termination of Gaussian 09 at Thu Sep 19 10:50:17 2024.
