 Entering Gaussian System, Link 0=g09
 Input=/home/asarotti.iquir/SCF2/04_Mentol09_OptB_NMR_benzene.gjc
 Output=/home/asarotti.iquir/SCF2/04_Mentol09_OptB_NMR_benzene.log
 Initial command:
 /opt/ohpc/pub/apps/software/Gaussian/09/AMD64.SSE4a-enabled/g09/l1.exe /local/asarotti.iquir/Gau-2487038.inp -scrdir=/local/asarotti.iquir/
 Entering Link 1 = /opt/ohpc/pub/apps/software/Gaussian/09/AMD64.SSE4a-enabled/g09/l1.exe PID=   2487039.
  
 Copyright (c) 1988,1990,1992,1993,1995,1998,2003,2009,2011,
            Gaussian, Inc.  All Rights Reserved.
  
 This is part of the Gaussian(R) 09 program.  It is based on
 the Gaussian(R) 03 system (copyright 2003, Gaussian, Inc.),
 the Gaussian(R) 98 system (copyright 1998, Gaussian, Inc.),
 the Gaussian(R) 94 system (copyright 1995, Gaussian, Inc.),
 the Gaussian 92(TM) system (copyright 1992, Gaussian, Inc.),
 the Gaussian 90(TM) system (copyright 1990, Gaussian, Inc.),
 the Gaussian 88(TM) system (copyright 1988, Gaussian, Inc.),
 the Gaussian 86(TM) system (copyright 1986, Carnegie Mellon
 University), and the Gaussian 82(TM) system (copyright 1983,
 Carnegie Mellon University). Gaussian is a federally registered
 trademark of Gaussian, Inc.
  
 This software contains proprietary and confidential information,
 including trade secrets, belonging to Gaussian, Inc.
  
 This software is provided under written license and may be
 used, copied, transmitted, or stored only in accord with that
 written license.
  
 The following legend is applicable only to US Government
 contracts under FAR:
  
                    RESTRICTED RIGHTS LEGEND
  
 Use, reproduction and disclosure by the US Government is
 subject to restrictions as set forth in subparagraphs (a)
 and (c) of the Commercial Computer Software - Restricted
 Rights clause in FAR 52.227-19.
  
 Gaussian, Inc.
 340 Quinnipiac St., Bldg. 40, Wallingford CT 06492
  
  
 ---------------------------------------------------------------
 Warning -- This program may not be used in any manner that
 competes with the business of Gaussian, Inc. or will provide
 assistance to any competitor of Gaussian, Inc.  The licensee
 of this program is prohibited from giving any competitor of
 Gaussian, Inc. access to this program.  By using this program,
 the user acknowledges that Gaussian, Inc. is engaged in the
 business of creating and licensing software in the field of
 computational chemistry and represents and warrants to the
 licensee that it is not a competitor of Gaussian, Inc. and that
 it will not use this program in any manner prohibited above.
 ---------------------------------------------------------------
  

 Cite this work as:
 Gaussian 09, Revision C.01,
 M. J. Frisch, G. W. Trucks, H. B. Schlegel, G. E. Scuseria, 
 M. A. Robb, J. R. Cheeseman, G. Scalmani, V. Barone, B. Mennucci, 
 G. A. Petersson, H. Nakatsuji, M. Caricato, X. Li, H. P. Hratchian, 
 A. F. Izmaylov, J. Bloino, G. Zheng, J. L. Sonnenberg, M. Hada, 
 M. Ehara, K. Toyota, R. Fukuda, J. Hasegawa, M. Ishida, T. Nakajima, 
 Y. Honda, O. Kitao, H. Nakai, T. Vreven, J. A. Montgomery, Jr., 
 J. E. Peralta, F. Ogliaro, M. Bearpark, J. J. Heyd, E. Brothers, 
 K. N. Kudin, V. N. Staroverov, T. Keith, R. Kobayashi, J. Normand, 
 K. Raghavachari, A. Rendell, J. C. Burant, S. S. Iyengar, J. Tomasi, 
 M. Cossi, N. Rega, J. M. Millam, M. Klene, J. E. Knox, J. B. Cross, 
 V. Bakken, C. Adamo, J. Jaramillo, R. Gomperts, R. E. Stratmann, 
 O. Yazyev, A. J. Austin, R. Cammi, C. Pomelli, J. W. Ochterski, 
 R. L. Martin, K. Morokuma, V. G. Zakrzewski, G. A. Voth, 
 P. Salvador, J. J. Dannenberg, S. Dapprich, A. D. Daniels, 
 O. Farkas, J. B. Foresman, J. V. Ortiz, J. Cioslowski, 
 and D. J. Fox, Gaussian, Inc., Wallingford CT, 2010.
 
 ******************************************
 Gaussian 09:  AM64L-G09RevC.01 23-Sep-2011
                19-Sep-2024 
 ******************************************
 %nprocshared=4
 Will use up to    4 processors via shared memory.
 %mem=100mw
 --------------------------------------------------
 # mPW1PW91/6-31+G** nmr scrf=(pcm,solvent=benzene)
 --------------------------------------------------
 1/38=1/1;
 2/12=2,17=6,18=5,40=1/2;
 3/5=1,6=6,7=111,11=2,16=1,25=1,30=1,70=2201,72=12,74=-7/1,2,8,3;
 4//1;
 5/5=2,38=5,53=12/2;
 8/6=1,10=90,11=11/1;
 10/13=100,45=16/2;
 6/7=2,8=2,9=2,10=2,28=1/1;
 99/9=1/99;
 -------
 comment
 -------
 Charge =  0 Multiplicity = 1
 Symbolic Z-Matrix:
 6                     2.30694  -0.53776  -0.20521 
 6                     0.25575   0.90899  -0.8797 
 6                    -0.05214  -1.12023   0.61701 
 6                    -0.68845  -0.25107  -0.48371 
 6                     1.31904  -1.65995   0.17923 
 6                     1.65442   0.39639  -1.24905 
 6                     2.85515   0.21205   1.02057 
 8                     0.40994   1.89371   0.15485 
 6                    -2.14348   0.21508  -0.17944 
 6                    -2.38512   0.66878   1.27302 
 6                    -3.16414  -0.87196  -0.5571 
 1                     3.16736  -1.01292  -0.69894 
 1                    -0.16942   1.40096  -1.77102 
 1                    -0.71487  -1.95934   0.86553 
 1                     0.06052  -0.52949   1.53304 
 1                    -0.75067  -0.87472  -1.39078 
 1                     1.17741  -2.32314  -0.68733 
 1                     1.75171  -2.27945   0.97602 
 1                     1.55736  -0.15226  -2.19652 
 1                     2.29963   1.26105  -1.44662 
 1                     3.36064  -0.48336   1.70256 
 1                     3.58656   0.96937   0.71379 
 1                     2.06643   0.73015   1.57121 
 1                    -0.42277   2.3845    0.21699 
 1                    -2.34369   1.07893  -0.83561 
 1                    -2.33827  -0.17952   1.96554 
 1                    -1.64779   1.40186   1.61329 
 1                    -3.38191   1.11505   1.37109 
 1                    -3.00397  -1.78626   0.02805 
 1                    -3.09179  -1.13809  -1.61825 
 1                    -4.18986  -0.53498  -0.36461 
 
                          Input orientation:                          
 ---------------------------------------------------------------------
 Center     Atomic      Atomic             Coordinates (Angstroms)
 Number     Number       Type             X           Y           Z
 ---------------------------------------------------------------------
      1          6           0        2.306943   -0.537758   -0.205207
      2          6           0        0.255751    0.908991   -0.879698
      3          6           0       -0.052136   -1.120228    0.617007
      4          6           0       -0.688452   -0.251070   -0.483708
      5          6           0        1.319043   -1.659953    0.179233
      6          6           0        1.654415    0.396388   -1.249045
      7          6           0        2.855153    0.212048    1.020566
      8          8           0        0.409943    1.893713    0.154854
      9          6           0       -2.143481    0.215079   -0.179438
     10          6           0       -2.385121    0.668780    1.273016
     11          6           0       -3.164141   -0.871955   -0.557103
     12          1           0        3.167358   -1.012915   -0.698944
     13          1           0       -0.169415    1.400964   -1.771024
     14          1           0       -0.714872   -1.959341    0.865532
     15          1           0        0.060521   -0.529487    1.533042
     16          1           0       -0.750666   -0.874719   -1.390778
     17          1           0        1.177410   -2.323141   -0.687331
     18          1           0        1.751706   -2.279446    0.976023
     19          1           0        1.557364   -0.152262   -2.196518
     20          1           0        2.299627    1.261052   -1.446619
     21          1           0        3.360635   -0.483360    1.702558
     22          1           0        3.586561    0.969373    0.713785
     23          1           0        2.066433    0.730145    1.571206
     24          1           0       -0.422771    2.384503    0.216990
     25          1           0       -2.343688    1.078929   -0.835613
     26          1           0       -2.338270   -0.179515    1.965538
     27          1           0       -1.647793    1.401861    1.613292
     28          1           0       -3.381912    1.115047    1.371093
     29          1           0       -3.003970   -1.786261    0.028045
     30          1           0       -3.091788   -1.138089   -1.618245
     31          1           0       -4.189860   -0.534977   -0.364606
 ---------------------------------------------------------------------
                    Distance matrix (angstroms):
                    1          2          3          4          5
     1  C    0.000000
     2  C    2.599117   0.000000
     3  C    2.565260   2.540207   0.000000
     4  C    3.021944   1.547278   1.540100   0.000000
     5  C    1.543717   2.975130   1.537232   2.540567   0.000000
     6  C    1.545322   1.534744   2.948659   2.548327   2.526062
     7  C    1.537941   3.294484   3.223375   3.877429   2.563564
     8  O    3.104884   1.436576   3.083982   2.492855   3.668187
     9  C    4.513724   2.593876   2.605973   1.557878   3.953917
    10  C    5.065209   3.415565   3.012261   2.609768   4.510010
    11  C    5.492566   3.869302   3.335378   2.553414   4.611081
    12  H    1.099938   3.493401   3.479710   3.936243   2.146188
    13  H    3.513229   1.103298   3.474601   2.157730   3.922782
    14  H    3.506957   3.495034   1.097768   2.177002   2.167360
    15  H    2.840421   2.815786   1.095804   2.169276   2.166709
    16  H    3.296679   2.110853   2.139958   1.102536   2.713894
    17  H    2.166998   3.366473   2.158722   2.795779   1.100369
    18  H    2.176481   3.980919   2.174057   3.492778   1.098109
    19  H    2.162359   2.134120   3.382805   2.826158   2.823849
    20  H    2.185606   2.150064   3.931900   3.484584   3.483850
    21  H    2.180090   4.271650   3.637448   4.607475   2.805885
    22  H    2.180232   3.692848   4.197132   4.604260   3.512939
    23  H    2.195693   3.052456   2.970305   3.574192   2.865091
    24  H    4.021094   1.959656   3.546903   2.740038   4.403745
    25  H    4.963815   2.605361   3.492507   2.152334   4.684761
    26  H    5.139891   4.001145   2.816005   2.953951   4.331111
    27  H    4.765396   3.175122   3.146369   2.837239   4.498149
    28  H    6.130217   4.282652   4.080748   3.544191   5.587498
    29  H    5.460674   4.325987   3.082823   2.824947   4.327500
    30  H    5.612786   3.992744   3.773083   2.801785   4.791524
    31  H    6.498759   4.702533   4.292650   3.514918   5.648836
                    6          7          8          9         10
     6  C    0.000000
     7  C    2.574274   0.000000
     8  O    2.400339   3.091360   0.000000
     9  C    3.949803   5.140658   3.074010   0.000000
    10  C    4.769994   5.266195   3.250097   1.540733   0.000000
    11  C    5.030503   6.316328   4.574918   1.538187   2.515963
    12  H    2.139566   2.134179   4.096437   5.475661   6.127540
    13  H    2.146623   4.284216   2.070619   2.799358   3.835574
    14  H    3.954038   4.181393   4.076309   2.803745   3.140509
    15  H    3.337327   2.936405   2.809519   2.888701   2.735804
    16  H    2.724007   4.471865   3.376419   2.143581   3.485632
    17  H    2.817604   3.486964   4.368082   4.210562   5.048384
    18  H    3.481448   2.725275   4.459810   4.767623   5.088573
    19  H    1.099155   3.488066   3.321376   4.230816   5.315540
    20  H    1.096803   2.737886   2.556537   4.737195   5.449226
    21  H    3.520952   1.097368   4.092975   5.858756   5.875853
    22  H    2.813219   1.096637   3.355251   5.848093   6.005338
    23  H    2.869663   1.092570   2.470608   4.588401   4.461952
    24  H    3.227470   4.013737   0.968581   2.797213   2.812421
    25  H    4.076962   5.587918   3.037661   1.103125   2.148547
    26  H    5.158172   5.293197   3.889669   2.189650   1.096078
    27  H    4.484253   4.695051   2.569676   2.206363   1.094006
    28  H    5.722428   6.311835   4.057551   2.178945   1.096524
    29  H    5.300516   6.269582   5.021264   2.188345   2.821374
    30  H    5.001737   6.644720   4.959619   2.191008   3.481888
    31  H    5.983747   7.218653   5.227481   2.187359   2.718073
                   11         12         13         14         15
    11  C    0.000000
    12  H    6.334656   0.000000
    13  H    3.950715   4.255611   0.000000
    14  H    3.034010   4.291272   4.305880   0.000000
    15  H    3.858035   3.855892   3.833584   1.758205   0.000000
    16  H    2.553406   3.981036   2.379322   2.503721   3.053839
    17  H    4.579516   2.382587   4.105763   2.474766   3.065076
    18  H    5.338264   2.532526   4.978192   2.489715   2.496544
    19  H    5.049579   2.361256   2.361212   4.219566   4.036391
    20  H    5.932429   2.546154   2.494190   4.980379   4.134973
    21  H    6.915907   2.466779   5.298840   4.414622   3.304787
    22  H    7.111795   2.470020   4.524147   5.206027   3.918000
    23  H    5.869866   3.066574   4.076704   3.932807   2.368926
    24  H    4.326528   5.026968   2.232429   4.401694   3.233713
    25  H    2.134633   5.896280   2.388758   3.844219   3.738683
    26  H    2.743220   6.173002   4.600407   2.648248   2.462465
    27  H    3.490009   5.862018   3.693128   3.567515   2.579706
    28  H    2.777326   7.190703   4.502753   4.101287   3.818516
    29  H    1.097273   6.261938   4.629228   2.443627   3.638077
    30  H    1.096396   6.327534   3.874325   3.534591   4.498673
    31  H    1.096681   7.380302   4.678660   3.951910   4.654765
                   16         17         18         19         20
    16  H    0.000000
    17  H    2.512019   0.000000
    18  H    3.719794   1.760248   0.000000
    19  H    2.549150   2.671091   3.824617   0.000000
    20  H    3.724100   3.831753   4.324874   1.763734   0.000000
    21  H    5.159911   3.723283   2.518418   4.308620   3.753136
    22  H    5.161531   4.313674   3.740359   3.720963   2.531525
    23  H    4.391467   3.900501   3.083980   3.903016   3.073029
    24  H    3.648967   5.053740   5.201625   4.022578   3.382483
    25  H    2.581214   4.898387   5.597585   4.311160   4.686883
    26  H    3.777387   4.898250   4.702845   5.700826   5.935330
    27  H    3.874544   5.210593   5.051210   5.215648   4.996499
    28  H    4.302390   6.070063   6.167065   6.223373   6.343556
    29  H    2.814489   4.275973   4.874254   5.331454   6.291970
    30  H    2.366845   4.527361   5.611805   4.787574   5.903617
    31  H    3.605067   5.666504   6.335824   6.044250   6.819818
                   21         22         23         24         25
    21  H    0.000000
    22  H    1.771764   0.000000
    23  H    1.778990   1.761587   0.000000
    24  H    4.974506   4.280671   3.281301   0.000000
    25  H    6.436020   6.130293   5.036228   2.549984   0.000000
    26  H    5.713055   6.163639   4.514907   3.647019   3.070856
    27  H    5.352231   5.328660   3.774712   2.101410   2.566260
    28  H    6.937342   7.000921   5.465589   3.420524   2.439009
    29  H    6.708930   7.176270   5.867080   4.908519   3.064505
    30  H    7.286300   7.381064   6.345876   4.785436   2.467253
    31  H    7.828525   7.993667   6.670015   4.801310   2.496976
                   26         27         28         29         30
    26  H    0.000000
    27  H    1.761132   0.000000
    28  H    1.765912   1.774286   0.000000
    29  H    2.603588   3.810032   3.219349   0.000000
    30  H    3.785519   4.356524   3.754589   1.771471   0.000000
    31  H    2.997384   3.758394   2.527451   1.768112   1.772320
                   31
    31  H    0.000000
 Stoichiometry    C10H20O
 Framework group  C1[X(C10H20O)]
 Deg. of freedom    87
 Full point group                 C1      NOp   1
 Largest Abelian subgroup         C1      NOp   1
 Largest concise Abelian subgroup C1      NOp   1
                         Standard orientation:                         
 ---------------------------------------------------------------------
 Center     Atomic      Atomic             Coordinates (Angstroms)
 Number     Number       Type             X           Y           Z
 ---------------------------------------------------------------------
      1          6           0        2.306943   -0.537758   -0.205207
      2          6           0        0.255751    0.908991   -0.879698
      3          6           0       -0.052136   -1.120228    0.617007
      4          6           0       -0.688452   -0.251070   -0.483708
      5          6           0        1.319043   -1.659953    0.179233
      6          6           0        1.654415    0.396388   -1.249045
      7          6           0        2.855153    0.212048    1.020566
      8          8           0        0.409943    1.893713    0.154854
      9          6           0       -2.143481    0.215079   -0.179438
     10          6           0       -2.385121    0.668780    1.273016
     11          6           0       -3.164141   -0.871955   -0.557103
     12          1           0        3.167358   -1.012915   -0.698944
     13          1           0       -0.169415    1.400964   -1.771024
     14          1           0       -0.714872   -1.959341    0.865532
     15          1           0        0.060521   -0.529487    1.533042
     16          1           0       -0.750666   -0.874719   -1.390778
     17          1           0        1.177410   -2.323141   -0.687331
     18          1           0        1.751706   -2.279446    0.976023
     19          1           0        1.557364   -0.152262   -2.196518
     20          1           0        2.299627    1.261052   -1.446619
     21          1           0        3.360635   -0.483360    1.702558
     22          1           0        3.586561    0.969373    0.713785
     23          1           0        2.066433    0.730145    1.571206
     24          1           0       -0.422771    2.384503    0.216990
     25          1           0       -2.343688    1.078929   -0.835613
     26          1           0       -2.338270   -0.179515    1.965538
     27          1           0       -1.647793    1.401861    1.613292
     28          1           0       -3.381912    1.115047    1.371093
     29          1           0       -3.003970   -1.786261    0.028045
     30          1           0       -3.091788   -1.138089   -1.618245
     31          1           0       -4.189860   -0.534977   -0.364606
 ---------------------------------------------------------------------
 Rotational constants (GHZ):      1.7942142      0.7326255      0.6683774
 Standard basis: 6-31+G(d,p) (6D, 7F)
 There are   309 symmetry adapted basis functions of A   symmetry.
 Integral buffers will be    131072 words long.
 Raffenetti 2 integral format.
 Two-electron integral symmetry is turned on.
   309 basis functions,   492 primitive gaussians,   309 cartesian basis functions
    44 alpha electrons       44 beta electrons
       nuclear repulsion energy       700.0911852149 Hartrees.
 NAtoms=   31 NActive=   31 NUniq=   31 SFac= 1.00D+00 NAtFMM=   60 NAOKFM=F Big=F
 ------------------------------------------------------------------------------
 Polarizable Continuum Model (PCM)
 =================================
 Model                : PCM.
 Atomic radii         : UFF (Universal Force Field).
 Polarization charges : Total charges.
 Charge compensation  : None.
 Solution method      : Matrix inversion.
 Cavity type          : Scaled VdW (van der Waals Surface) (Alpha=1.100).
 Cavity algorithm     : GePol (No added spheres)
                        Default sphere list used, NSphG=   31.
                        Lebedev-Laikov grids with approx.  5.0 points / Ang**2.
                        Smoothing algorithm: Karplus/York (Gamma=1.0000).
                        Polarization charges: spherical gaussians, with
                                              point-specific exponents (IZeta= 3).
                        Self-potential: point-specific (ISelfS= 7).
                        Self-field    : sphere-specific E.n sum rule (ISelfD= 2).
 Solvent              : Benzene, Eps=   2.270600 Eps(inf)=   2.253301
 ------------------------------------------------------------------------------
 One-electron integrals computed using PRISM.
 NBasis=   309 RedAO= T  NBF=   309
 NBsUse=   309 1.00D-06 NBFU=   309
 Harris functional with IExCor=  908 diagonalized for initial guess.
 ExpMin= 4.38D-02 ExpMax= 5.48D+03 ExpMxC= 8.25D+02 IAcc=2 IRadAn=         4 AccDes= 0.00D+00
 HarFok:  IExCor=  908 AccDes= 0.00D+00 IRadAn=         4 IDoV= 1
 ScaDFX=  1.000000  1.000000  1.000000  1.000000
 FoFCou: FMM=F IPFlag=           0 FMFlag=      100000 FMFlg1=           0
         NFxFlg=           0 DoJE=T BraDBF=F KetDBF=T FulRan=T
         Omega=  0.000000  0.000000  1.000000  0.000000  0.000000 ICntrl=     500 IOpCl=  0
         NMat0=    1 NMatS0=    1 NMatT0=    0 NMatD0=    1 NMtDS0=    0 NMtDT0=    0
         I1Cent=           4 NGrid=           0.
 Petite list used in FoFCou.
 Initial guess orbital symmetries:
       Occupied  (A) (A) (A) (A) (A) (A) (A) (A) (A) (A) (A) (A)
                 (A) (A) (A) (A) (A) (A) (A) (A) (A) (A) (A) (A)
                 (A) (A) (A) (A) (A) (A) (A) (A) (A) (A) (A) (A)
                 (A) (A) (A) (A) (A) (A) (A) (A)
       Virtual   (A) (A) (A) (A) (A) (A) (A) (A) (A) (A) (A) (A)
                 (A) (A) (A) (A) (A) (A) (A) (A) (A) (A) (A) (A)
                 (A) (A) (A) (A) (A) (A) (A) (A) (A) (A) (A) (A)
                 (A) (A) (A) (A) (A) (A) (A) (A) (A) (A) (A) (A)
                 (A) (A) (A) (A) (A) (A) (A) (A) (A) (A) (A) (A)
                 (A) (A) (A) (A) (A) (A) (A) (A) (A) (A) (A) (A)
                 (A) (A) (A) (A) (A) (A) (A) (A) (A) (A) (A) (A)
                 (A) (A) (A) (A) (A) (A) (A) (A) (A) (A) (A) (A)
                 (A) (A) (A) (A) (A) (A) (A) (A) (A) (A) (A) (A)
                 (A) (A) (A) (A) (A) (A) (A) (A) (A) (A) (A) (A)
                 (A) (A) (A) (A) (A) (A) (A) (A) (A) (A) (A) (A)
                 (A) (A) (A) (A) (A) (A) (A) (A) (A) (A) (A) (A)
                 (A) (A) (A) (A) (A) (A) (A) (A) (A) (A) (A) (A)
                 (A) (A) (A) (A) (A) (A) (A) (A) (A) (A) (A) (A)
                 (A) (A) (A) (A) (A) (A) (A) (A) (A) (A) (A) (A)
                 (A) (A) (A) (A) (A) (A) (A) (A) (A) (A) (A) (A)
                 (A) (A) (A) (A) (A) (A) (A) (A) (A) (A) (A) (A)
                 (A) (A) (A) (A) (A) (A) (A) (A) (A) (A) (A) (A)
                 (A) (A) (A) (A) (A) (A) (A) (A) (A) (A) (A) (A)
                 (A) (A) (A) (A) (A) (A) (A) (A) (A) (A) (A) (A)
                 (A) (A) (A) (A) (A) (A) (A) (A) (A) (A) (A) (A)
                 (A) (A) (A) (A) (A) (A) (A) (A) (A) (A) (A) (A)
                 (A)
 The electronic state of the initial guess is 1-A.
 Requested convergence on RMS density matrix=1.00D-08 within 128 cycles.
 Requested convergence on MAX density matrix=1.00D-06.
 Requested convergence on             energy=1.00D-06.
 No special actions if energy rises.
 Error on total polarization charges =  0.00932
 SCF Done:  E(RmPW1PW91) =  -468.277463178     A.U. after   13 cycles
             Convg  =    0.3147D-08             -V/T =  2.0099
 Range of M.O.s used for correlation:     1   309
 NBasis=   309 NAE=    44 NBE=    44 NFC=     0 NFV=     0
 NROrb=    309 NOA=    44 NOB=    44 NVA=   265 NVB=   265

 **** Warning!!: The largest alpha MO coefficient is  0.67231017D+02

 NEqPCM:  Using equilibrium solvation (IEInf=0, Eps=   2.2706, EpsInf=   2.2533)
          Differentiating once with respect to magnetic field using GIAOs.
          Electric field/nuclear overlap derivatives assumed to be zero.
 FoFCou: FMM=F IPFlag=           0 FMFlag=    10101102 FMFlg1=           0
         NFxFlg=    40000000 DoJE=F BraDBF=F KetDBF=T FulRan=T
         Omega=  0.000000  0.000000  1.000000  0.000000  0.000000 ICntrl=    6100 IOpCl=  0
         NMat0=    1 NMatS0=    1 NMatT0=    0 NMatD0=    1 NMtDS0=    0 NMtDT0=    0
         I1Cent=           7 NGrid=        1908.
 Symmetry not used in FoFCou.
          There are     3 degrees of freedom in the 1st order CPHF.  IDoFFX=0.
      3 vectors produced by pass  0 Test12= 3.89D-13 3.33D-08 XBig12= 3.60D+01 1.47D+00.
 AX will form     3 AO Fock derivatives at one time.
      3 vectors produced by pass  1 Test12= 3.89D-13 3.33D-08 XBig12= 7.80D-02 3.26D-02.
      3 vectors produced by pass  2 Test12= 3.89D-13 3.33D-08 XBig12= 1.75D-04 2.63D-03.
      3 vectors produced by pass  3 Test12= 3.89D-13 3.33D-08 XBig12= 1.11D-06 3.15D-04.
      3 vectors produced by pass  4 Test12= 3.89D-13 3.33D-08 XBig12= 3.01D-09 9.40D-06.
      3 vectors produced by pass  5 Test12= 3.89D-13 3.33D-08 XBig12= 6.13D-12 4.58D-07.
 Inverted reduced A of dimension    18 with in-core refinement.
 Calculating GIAO nuclear magnetic shielding tensors.
 SCF GIAO Magnetic shielding tensor (ppm):
      1  C    Isotropic =   164.7163   Anisotropy =     3.0274
   XX=   164.0509   YX=     0.2767   ZX=     1.3911
   XY=    -0.8128   YY=   163.8189   ZY=    -0.3339
   XZ=    -2.3207   YZ=     2.3227   ZZ=   166.2791
   Eigenvalues:   163.4487   163.9657   166.7346
      2  C    Isotropic =   118.5656   Anisotropy =    36.9447
   XX=   112.1915   YX=     4.5268   ZX=    -5.7665
   XY=    13.9053   YY=   117.4638   ZY=    23.0320
   XZ=     3.7655   YZ=    17.2447   ZZ=   126.0414
   Eigenvalues:    97.0103   115.4910   143.1954
      3  C    Isotropic =   177.9568   Anisotropy =    13.4246
   XX=   184.1887   YX=    -5.0505   ZX=    -2.3933
   XY=    -5.1625   YY=   177.2990   ZY=    -5.2974
   XZ=    -0.0718   YZ=    -0.1756   ZZ=   172.3826
   Eigenvalues:   170.2910   176.6728   186.9065
      4  C    Isotropic =   147.1029   Anisotropy =    14.2419
   XX=   151.4594   YX=     4.9293   ZX=    -1.0425
   XY=    -9.2829   YY=   143.6890   ZY=     8.9139
   XZ=    -4.1431   YZ=     9.8100   ZZ=   146.1603
   Eigenvalues:   135.4811   149.2300   156.5974
      5  C    Isotropic =   161.5406   Anisotropy =    12.4868
   XX=   165.8552   YX=     4.9886   ZX=     2.2561
   XY=     5.8656   YY=   162.2945   ZY=     2.7742
   XZ=     0.1379   YZ=    -2.5860   ZZ=   156.4720
   Eigenvalues:   156.2124   158.5441   169.8651
      6  C    Isotropic =   156.3670   Anisotropy =    10.2248
   XX=   161.8684   YX=    -2.8046   ZX=     0.2976
   XY=    -3.0792   YY=   155.3256   ZY=     2.0936
   XZ=     3.6755   YZ=     0.2916   ZZ=   151.9070
   Eigenvalues:   150.7690   155.1485   163.1835
      7  C    Isotropic =   174.3667   Anisotropy =    32.0081
   XX=   164.8611   YX=     5.7917   ZX=    14.8278
   XY=     9.1045   YY=   172.9606   ZY=     1.8755
   XZ=    17.8944   YZ=     2.3260   ZZ=   185.2785
   Eigenvalues:   154.1178   173.2769   195.7055
      8  O    Isotropic =   288.3359   Anisotropy =    77.1109
   XX=   307.6083   YX=   -44.7829   ZX=   -31.4906
   XY=   -26.0784   YY=   280.7643   ZY=     4.1400
   XZ=    -7.9490   YZ=    16.1180   ZZ=   276.6352
   Eigenvalues:   255.7332   269.5314   339.7432
      9  C    Isotropic =   160.5815   Anisotropy =    19.9569
   XX=   172.1740   YX=    -6.0443   ZX=     0.3415
   XY=    -5.2332   YY=   155.2882   ZY=    -4.2811
   XZ=    -1.9997   YZ=    -2.6256   ZZ=   154.2824
   Eigenvalues:   150.3668   157.4917   173.8861
     10  C    Isotropic =   176.4133   Anisotropy =    26.4127
   XX=   171.1629   YX=     0.6234   ZX=    -6.5270
   XY=     2.2600   YY=   170.7313   ZY=    10.7476
   XZ=    -1.2244   YZ=    13.3751   ZZ=   187.3456
   Eigenvalues:   163.1689   172.0491   194.0218
     11  C    Isotropic =   172.1202   Anisotropy =    37.8254
   XX=   178.6857   YX=    14.5033   ZX=     5.7240
   XY=    19.2190   YY=   170.6745   ZY=    18.0522
   XZ=    -1.8893   YZ=    15.5859   ZZ=   167.0005
   Eigenvalues:   148.1258   170.8977   197.3371
     12  H    Isotropic =    29.8179   Anisotropy =    10.1624
   XX=    33.2857   YX=    -3.1058   ZX=    -2.9185
   XY=    -3.3537   YY=    27.8190   ZY=     2.3681
   XZ=    -3.3848   YZ=     2.3292   ZZ=    28.3490
   Eigenvalues:    25.6918    27.1690    36.5928
     13  H    Isotropic =    27.6489   Anisotropy =     5.9046
   XX=    25.8103   YX=    -0.3426   ZX=     1.2573
   XY=    -0.5727   YY=    26.1895   ZY=     0.1510
   XZ=     1.5635   YZ=    -2.4380   ZZ=    30.9468
   Eigenvalues:    25.4012    25.9601    31.5853
     14  H    Isotropic =    30.3989   Anisotropy =     8.6390
   XX=    33.1173   YX=     2.0269   ZX=    -1.5260
   XY=     1.9082   YY=    32.3962   ZY=    -4.0568
   XZ=    -1.5596   YZ=    -3.7700   ZZ=    25.6832
   Eigenvalues:    23.8454    31.1930    36.1582
     15  H    Isotropic =    29.6785   Anisotropy =     4.7285
   XX=    30.5126   YX=    -1.7696   ZX=    -0.3725
   XY=    -0.9335   YY=    26.3593   ZY=     1.6598
   XZ=    -0.0581   YZ=     1.9253   ZZ=    32.1635
   Eigenvalues:    25.5377    30.6669    32.8308
     16  H    Isotropic =    30.4499   Anisotropy =     5.1100
   XX=    32.4693   YX=     0.7375   ZX=     0.6653
   XY=     1.0730   YY=    27.8758   ZY=     2.9486
   XZ=     0.6792   YZ=     3.5542   ZZ=    31.0047
   Eigenvalues:    25.8064    31.6868    33.8566
     17  H    Isotropic =    30.0394   Anisotropy =     8.7645
   XX=    28.6572   YX=    -0.1166   ZX=    -0.7278
   XY=    -0.0498   YY=    33.4153   ZY=     4.6449
   XZ=    -0.7804   YZ=     4.0859   ZZ=    28.0458
   Eigenvalues:    25.4847    28.7511    35.8824
     18  H    Isotropic =    29.9851   Anisotropy =     9.4884
   XX=    29.9563   YX=    -2.6329   ZX=     1.7927
   XY=    -2.6764   YY=    32.0686   ZY=    -4.4156
   XZ=     1.8456   YZ=    -3.9889   ZZ=    27.9304
   Eigenvalues:    25.3098    28.3349    36.3107
     19  H    Isotropic =    29.9501   Anisotropy =     8.4911
   XX=    28.1253   YX=    -0.8711   ZX=    -1.4934
   XY=    -1.1302   YY=    26.5845   ZY=     0.9196
   XZ=    -1.2007   YZ=     1.5681   ZZ=    35.1404
   Eigenvalues:    26.0576    28.1818    35.6108
     20  H    Isotropic =    29.7691   Anisotropy =     8.4554
   XX=    30.5453   YX=     2.8779   ZX=    -1.8198
   XY=     2.1944   YY=    30.1370   ZY=    -3.3662
   XZ=    -2.5035   YZ=    -3.9619   ZZ=    28.6249
   Eigenvalues:    25.6381    28.2631    35.4060
     21  H    Isotropic =    30.8776   Anisotropy =    10.9679
   XX=    31.4743   YX=    -1.8066   ZX=     5.4059
   XY=    -1.4832   YY=    28.8210   ZY=    -1.6707
   XZ=     5.3746   YZ=    -3.0846   ZZ=    32.3376
   Eigenvalues:    26.4007    28.0427    38.1896
     22  H    Isotropic =    30.5884   Anisotropy =     9.8568
   XX=    33.1310   YX=     4.8346   ZX=     1.0913
   XY=     4.9749   YY=    30.9162   ZY=    -0.6656
   XZ=     1.5305   YZ=     0.6050   ZZ=    27.7180
   Eigenvalues:    26.4104    28.1951    37.1596
     23  H    Isotropic =    29.5098   Anisotropy =     4.4184
   XX=    31.1019   YX=    -1.5850   ZX=     1.2630
   XY=    -2.1830   YY=    27.7671   ZY=     3.2978
   XZ=     0.0787   YZ=     3.0808   ZZ=    29.6604
   Eigenvalues:    24.8026    31.2713    32.4554
     24  H    Isotropic =    30.5061   Anisotropy =    17.0762
   XX=    35.9609   YX=    -6.3075   ZX=    -0.9867
   XY=    -6.5765   YY=    33.0944   ZY=     4.3514
   XZ=    -2.3105   YZ=     3.7422   ZZ=    22.4629
   Eigenvalues:    21.0765    28.5515    41.8902
     25  H    Isotropic =    30.0002   Anisotropy =     6.5406
   XX=    29.6221   YX=    -1.1736   ZX=     1.6740
   XY=    -0.6803   YY=    31.1006   ZY=    -3.5287
   XZ=     1.5100   YZ=    -3.3321   ZZ=    29.2780
   Eigenvalues:    26.4638    29.1763    34.3606
     26  H    Isotropic =    30.7471   Anisotropy =     6.9143
   XX=    29.2707   YX=    -0.6004   ZX=    -2.0494
   XY=    -0.9632   YY=    29.2052   ZY=    -2.2529
   XZ=    -1.6364   YZ=    -3.2214   ZZ=    33.7653
   Eigenvalues:    26.8941    29.9905    35.3566
     27  H    Isotropic =    30.3482   Anisotropy =     7.1903
   XX=    31.0760   YX=     2.4544   ZX=    -1.2090
   XY=     3.1379   YY=    29.9937   ZY=     4.1825
   XZ=    -0.0824   YZ=     4.7884   ZZ=    29.9751
   Eigenvalues:    24.5576    31.3453    35.1418
     28  H    Isotropic =    30.7448   Anisotropy =    10.8388
   XX=    34.2361   YX=    -4.0285   ZX=    -2.3418
   XY=    -3.9251   YY=    29.0203   ZY=     2.5467
   XZ=    -3.4328   YZ=     2.5969   ZZ=    28.9781
   Eigenvalues:    26.2674    27.9964    37.9707
     29  H    Isotropic =    30.5312   Anisotropy =     6.9989
   XX=    30.5103   YX=     2.4732   ZX=     0.4125
   XY=     1.8261   YY=    33.8332   ZY=    -2.4712
   XZ=     0.8696   YZ=    -1.5637   ZZ=    27.2501
   Eigenvalues:    26.2985    30.0980    35.1971
     30  H    Isotropic =    30.7208   Anisotropy =    10.1339
   XX=    29.4783   YX=     2.3118   ZX=     2.9033
   XY=     1.5286   YY=    28.0511   ZY=     4.2964
   XZ=     2.0461   YZ=     3.1476   ZZ=    34.6331
   Eigenvalues:    26.1507    28.5350    37.4767
     31  H    Isotropic =    30.7034   Anisotropy =    10.6022
   XX=    37.7555   YX=    -0.4861   ZX=     0.3640
   XY=     0.8809   YY=    27.3160   ZY=     0.8514
   XZ=     0.3136   YZ=     1.4645   ZZ=    27.0386
   Eigenvalues:    26.0098    28.3288    37.7715
 End of Minotr Frequency-dependent properties file   721 does not exist.
 End of Minotr Frequency-dependent properties file   722 does not exist.

 **********************************************************************

            Population analysis using the SCF density.

 **********************************************************************

 Orbital symmetries:
       Occupied  (A) (A) (A) (A) (A) (A) (A) (A) (A) (A) (A) (A)
                 (A) (A) (A) (A) (A) (A) (A) (A) (A) (A) (A) (A)
                 (A) (A) (A) (A) (A) (A) (A) (A) (A) (A) (A) (A)
                 (A) (A) (A) (A) (A) (A) (A) (A)
       Virtual   (A) (A) (A) (A) (A) (A) (A) (A) (A) (A) (A) (A)
                 (A) (A) (A) (A) (A) (A) (A) (A) (A) (A) (A) (A)
                 (A) (A) (A) (A) (A) (A) (A) (A) (A) (A) (A) (A)
                 (A) (A) (A) (A) (A) (A) (A) (A) (A) (A) (A) (A)
                 (A) (A) (A) (A) (A) (A) (A) (A) (A) (A) (A) (A)
                 (A) (A) (A) (A) (A) (A) (A) (A) (A) (A) (A) (A)
                 (A) (A) (A) (A) (A) (A) (A) (A) (A) (A) (A) (A)
                 (A) (A) (A) (A) (A) (A) (A) (A) (A) (A) (A) (A)
                 (A) (A) (A) (A) (A) (A) (A) (A) (A) (A) (A) (A)
                 (A) (A) (A) (A) (A) (A) (A) (A) (A) (A) (A) (A)
                 (A) (A) (A) (A) (A) (A) (A) (A) (A) (A) (A) (A)
                 (A) (A) (A) (A) (A) (A) (A) (A) (A) (A) (A) (A)
                 (A) (A) (A) (A) (A) (A) (A) (A) (A) (A) (A) (A)
                 (A) (A) (A) (A) (A) (A) (A) (A) (A) (A) (A) (A)
                 (A) (A) (A) (A) (A) (A) (A) (A) (A) (A) (A) (A)
                 (A) (A) (A) (A) (A) (A) (A) (A) (A) (A) (A) (A)
                 (A) (A) (A) (A) (A) (A) (A) (A) (A) (A) (A) (A)
                 (A) (A) (A) (A) (A) (A) (A) (A) (A) (A) (A) (A)
                 (A) (A) (A) (A) (A) (A) (A) (A) (A) (A) (A) (A)
                 (A) (A) (A) (A) (A) (A) (A) (A) (A) (A) (A) (A)
                 (A) (A) (A) (A) (A) (A) (A) (A) (A) (A) (A) (A)
                 (A) (A) (A) (A) (A) (A) (A) (A) (A) (A) (A) (A)
                 (A)
 The electronic state is 1-A.
 Alpha  occ. eigenvalues --  -19.24351 -10.29463 -10.25567 -10.24677 -10.24568
 Alpha  occ. eigenvalues --  -10.23763 -10.23651 -10.23576 -10.23501 -10.23429
 Alpha  occ. eigenvalues --  -10.22163  -1.04849  -0.85657  -0.82111  -0.76076
 Alpha  occ. eigenvalues --   -0.75633  -0.70371  -0.69121  -0.63413  -0.61958
 Alpha  occ. eigenvalues --   -0.57186  -0.55077  -0.51643  -0.49775  -0.46576
 Alpha  occ. eigenvalues --   -0.45817  -0.45289  -0.43294  -0.42542  -0.40916
 Alpha  occ. eigenvalues --   -0.40105  -0.39703  -0.39217  -0.38259  -0.37279
 Alpha  occ. eigenvalues --   -0.36038  -0.35314  -0.34920  -0.33438  -0.32759
 Alpha  occ. eigenvalues --   -0.31865  -0.31365  -0.29508  -0.27417
 Alpha virt. eigenvalues --    0.00265   0.01732   0.02042   0.02514   0.03896
 Alpha virt. eigenvalues --    0.04280   0.04579   0.04814   0.05609   0.06786
 Alpha virt. eigenvalues --    0.07089   0.07373   0.07739   0.08664   0.08963
 Alpha virt. eigenvalues --    0.09681   0.10294   0.11025   0.11283   0.11657
 Alpha virt. eigenvalues --    0.12354   0.12592   0.13303   0.14332   0.14876
 Alpha virt. eigenvalues --    0.15463   0.15684   0.16801   0.16895   0.17389
 Alpha virt. eigenvalues --    0.18140   0.18382   0.19118   0.19772   0.19801
 Alpha virt. eigenvalues --    0.20386   0.20611   0.20989   0.21923   0.22377
 Alpha virt. eigenvalues --    0.22909   0.23432   0.23673   0.24059   0.24510
 Alpha virt. eigenvalues --    0.24827   0.25133   0.26215   0.26658   0.27210
 Alpha virt. eigenvalues --    0.27890   0.28616   0.28989   0.30030   0.30154
 Alpha virt. eigenvalues --    0.30602   0.31109   0.31739   0.33042   0.33122
 Alpha virt. eigenvalues --    0.34009   0.35115   0.35946   0.36610   0.37052
 Alpha virt. eigenvalues --    0.37926   0.39514   0.40050   0.40718   0.40792
 Alpha virt. eigenvalues --    0.43158   0.45061   0.47011   0.50461   0.53871
 Alpha virt. eigenvalues --    0.62801   0.64715   0.65372   0.65624   0.67621
 Alpha virt. eigenvalues --    0.69062   0.70279   0.71573   0.72044   0.72268
 Alpha virt. eigenvalues --    0.73753   0.74824   0.75397   0.76703   0.77438
 Alpha virt. eigenvalues --    0.77985   0.81414   0.82246   0.83160   0.84347
 Alpha virt. eigenvalues --    0.85303   0.86568   0.88810   0.89639   0.93591
 Alpha virt. eigenvalues --    0.96016   0.96473   0.98660   0.99277   1.00724
 Alpha virt. eigenvalues --    1.01007   1.01434   1.03466   1.03635   1.04437
 Alpha virt. eigenvalues --    1.05125   1.06621   1.09199   1.10837   1.11390
 Alpha virt. eigenvalues --    1.12506   1.14487   1.15022   1.15311   1.16591
 Alpha virt. eigenvalues --    1.17870   1.18582   1.19936   1.20943   1.22080
 Alpha virt. eigenvalues --    1.22441   1.27002   1.27700   1.29994   1.32821
 Alpha virt. eigenvalues --    1.37177   1.39202   1.41432   1.43522   1.46405
 Alpha virt. eigenvalues --    1.46614   1.51871   1.52672   1.55238   1.57581
 Alpha virt. eigenvalues --    1.60613   1.61895   1.63450   1.65044   1.65277
 Alpha virt. eigenvalues --    1.70610   1.71539   1.75938   1.78996   1.79944
 Alpha virt. eigenvalues --    1.81413   1.84532   1.86423   1.86602   1.88483
 Alpha virt. eigenvalues --    1.88915   1.90575   1.91903   1.92184   1.93130
 Alpha virt. eigenvalues --    1.95122   1.98454   1.99218   2.01457   2.03358
 Alpha virt. eigenvalues --    2.06459   2.07064   2.08200   2.08967   2.09621
 Alpha virt. eigenvalues --    2.10174   2.12242   2.13283   2.15313   2.15875
 Alpha virt. eigenvalues --    2.16096   2.16954   2.17808   2.18768   2.20813
 Alpha virt. eigenvalues --    2.21807   2.23040   2.25265   2.27346   2.31498
 Alpha virt. eigenvalues --    2.32036   2.34936   2.36045   2.36496   2.38542
 Alpha virt. eigenvalues --    2.39593   2.40926   2.42382   2.43938   2.45041
 Alpha virt. eigenvalues --    2.45789   2.51104   2.51632   2.55746   2.56965
 Alpha virt. eigenvalues --    2.57854   2.59879   2.61691   2.63727   2.66768
 Alpha virt. eigenvalues --    2.68620   2.69315   2.69669   2.71239   2.72866
 Alpha virt. eigenvalues --    2.73932   2.74256   2.76621   2.77461   2.78600
 Alpha virt. eigenvalues --    2.79049   2.80381   2.82090   2.83410   2.85092
 Alpha virt. eigenvalues --    2.87178   2.90373   2.91268   2.91771   2.92365
 Alpha virt. eigenvalues --    2.93344   2.93919   2.94759   2.96227   2.98198
 Alpha virt. eigenvalues --    2.99758   3.02033   3.09851   3.11261   3.29275
 Alpha virt. eigenvalues --    3.30434   3.31622   3.36940   3.37968   3.39327
 Alpha virt. eigenvalues --    3.40018   3.45368   3.47763   3.49041   3.50890
 Alpha virt. eigenvalues --    3.51562   3.52693   3.53488   3.55484   3.56469
 Alpha virt. eigenvalues --    3.57520   3.58451   3.61331   3.63585   4.36289
 Alpha virt. eigenvalues --    4.43674   4.45887   4.53937   4.57137   4.62653
 Alpha virt. eigenvalues --    4.68916   4.75288   4.83665   4.90918   4.96457
          Condensed to atoms (all electrons):
              1          2          3          4          5          6
     1  C    6.139031  -0.040338  -0.179417  -0.363727   0.046101  -0.102827
     2  C   -0.040338   7.387423  -0.382720  -1.472858   0.093213  -0.383034
     3  C   -0.179417  -0.382720   6.686910  -0.429274  -0.209746   0.002728
     4  C   -0.363727  -1.472858  -0.429274   8.897598   0.145823   0.194387
     5  C    0.046101   0.093213  -0.209746   0.145823   5.853638   0.117204
     6  C   -0.102827  -0.383034   0.002728   0.194387   0.117204   6.401995
     7  C    0.179811  -0.064073   0.035931   0.058762  -0.153120  -0.123796
     8  O   -0.002735   0.070742  -0.021613  -0.005102  -0.029710  -0.135725
     9  C    0.159742   0.731654   0.228804  -1.848572  -0.106759  -0.181130
    10  C    0.000463  -0.036606   0.033735   0.074800  -0.035879  -0.008646
    11  C   -0.069401  -0.201933  -0.140426   0.523659   0.064974   0.017604
    12  H    0.268465   0.025526   0.035007  -0.000669  -0.002602  -0.022804
    13  H    0.026596   0.188239   0.026691   0.070541  -0.012772   0.047120
    14  H    0.043850   0.048659   0.247541  -0.042604   0.037933  -0.010100
    15  H    0.000826  -0.014281   0.459378  -0.091664  -0.040923  -0.021016
    16  H    0.005048  -0.013190   0.017158   0.264766  -0.018273  -0.041627
    17  H   -0.004661  -0.011358  -0.040531   0.009753   0.374475  -0.035968
    18  H   -0.085178  -0.013219  -0.064613   0.026787   0.419779   0.039169
    19  H    0.026059  -0.033866   0.004880   0.008837  -0.049144   0.321918
    20  H   -0.098308  -0.098810  -0.017169   0.061595   0.034328   0.451877
    21  H   -0.088385  -0.014105   0.009020   0.000220  -0.006292   0.036297
    22  H   -0.077783   0.000070  -0.012850   0.003241   0.029951   0.003678
    23  H   -0.072383   0.017079   0.003548   0.009618  -0.015535  -0.022376
    24  H    0.000217   0.126000  -0.007160  -0.129433   0.006748   0.012017
    25  H    0.001126  -0.011530   0.002155  -0.022798  -0.003834   0.005800
    26  H    0.001036   0.005570   0.008780  -0.014174  -0.000957   0.001870
    27  H   -0.003394  -0.015813  -0.027502   0.028259   0.004914   0.000345
    28  H    0.000013   0.008530  -0.008232   0.041658   0.000487   0.000367
    29  H    0.000466  -0.000749  -0.006255   0.004067  -0.000770  -0.000842
    30  H   -0.000399  -0.010161   0.016852   0.010358  -0.001815  -0.000824
    31  H   -0.000272  -0.003631  -0.001350   0.041106   0.000866   0.000103
              7          8          9         10         11         12
     1  C    0.179811  -0.002735   0.159742   0.000463  -0.069401   0.268465
     2  C   -0.064073   0.070742   0.731654  -0.036606  -0.201933   0.025526
     3  C    0.035931  -0.021613   0.228804   0.033735  -0.140426   0.035007
     4  C    0.058762  -0.005102  -1.848572   0.074800   0.523659  -0.000669
     5  C   -0.153120  -0.029710  -0.106759  -0.035879   0.064974  -0.002602
     6  C   -0.123796  -0.135725  -0.181130  -0.008646   0.017604  -0.022804
     7  C    5.433653   0.030461   0.008331   0.001694  -0.001489  -0.014465
     8  O    0.030461   8.387387   0.060676  -0.032588   0.031506  -0.000931
     9  C    0.008331   0.060676   7.832389  -0.055871  -0.661235  -0.001762
    10  C    0.001694  -0.032588  -0.055871   5.462872  -0.133852   0.000351
    11  C   -0.001489   0.031506  -0.661235  -0.133852   5.864055   0.000418
    12  H   -0.014465  -0.000931  -0.001762   0.000351   0.000418   0.584078
    13  H   -0.002573  -0.038870  -0.057544   0.011165   0.002730  -0.000140
    14  H   -0.001935  -0.001354   0.037782  -0.022281  -0.008412  -0.000125
    15  H    0.014176   0.007660  -0.001372  -0.001706   0.007008  -0.000041
    16  H    0.003965   0.012872   0.019065  -0.007980   0.022634  -0.000058
    17  H    0.016558   0.000323   0.007550   0.000661   0.000115  -0.006082
    18  H    0.002952   0.000359  -0.002902   0.001468  -0.001208  -0.002005
    19  H    0.018879   0.010520   0.016031  -0.000292  -0.001174  -0.006849
    20  H    0.002572  -0.001042  -0.007987  -0.001212   0.000733  -0.001583
    21  H    0.416392   0.000830  -0.001269   0.000249  -0.000077  -0.004242
    22  H    0.409597   0.000389  -0.000045  -0.000464   0.000117  -0.003661
    23  H    0.449304  -0.011743  -0.000877   0.001151   0.000235   0.004719
    24  H   -0.007356   0.212610   0.039423  -0.013334   0.000127   0.000009
    25  H   -0.000126  -0.004679   0.295633   0.005532  -0.000419   0.000000
    26  H   -0.000401  -0.000455  -0.091715   0.445427  -0.003278   0.000000
    27  H   -0.000009   0.003764  -0.043002   0.402694   0.007538   0.000000
    28  H   -0.000100  -0.000203  -0.131462   0.449641  -0.003443   0.000000
    29  H    0.000040  -0.000093  -0.098763  -0.003401   0.455957   0.000000
    30  H    0.000064   0.000143  -0.094675   0.002954   0.437019   0.000000
    31  H   -0.000017  -0.000021  -0.138022   0.003855   0.455657   0.000000
             13         14         15         16         17         18
     1  C    0.026596   0.043850   0.000826   0.005048  -0.004661  -0.085178
     2  C    0.188239   0.048659  -0.014281  -0.013190  -0.011358  -0.013219
     3  C    0.026691   0.247541   0.459378   0.017158  -0.040531  -0.064613
     4  C    0.070541  -0.042604  -0.091664   0.264766   0.009753   0.026787
     5  C   -0.012772   0.037933  -0.040923  -0.018273   0.374475   0.419779
     6  C    0.047120  -0.010100  -0.021016  -0.041627  -0.035968   0.039169
     7  C   -0.002573  -0.001935   0.014176   0.003965   0.016558   0.002952
     8  O   -0.038870  -0.001354   0.007660   0.012872   0.000323   0.000359
     9  C   -0.057544   0.037782  -0.001372   0.019065   0.007550  -0.002902
    10  C    0.011165  -0.022281  -0.001706  -0.007980   0.000661   0.001468
    11  C    0.002730  -0.008412   0.007008   0.022634   0.000115  -0.001208
    12  H   -0.000140  -0.000125  -0.000041  -0.000058  -0.006082  -0.002005
    13  H    0.621270  -0.000141  -0.000061  -0.003392  -0.000052   0.000013
    14  H   -0.000141   0.556437  -0.030817  -0.004749  -0.004383  -0.003142
    15  H   -0.000061  -0.030817   0.531177   0.005089   0.004555  -0.003195
    16  H   -0.003392  -0.004749   0.005089   0.585665   0.003384   0.000057
    17  H   -0.000052  -0.004383   0.004555   0.003384   0.554128  -0.027960
    18  H    0.000013  -0.003142  -0.003195   0.000057  -0.027960   0.554319
    19  H   -0.004937  -0.000021   0.000068   0.001434   0.002407  -0.000027
    20  H   -0.003961   0.000010  -0.000015   0.000021  -0.000044  -0.000127
    21  H    0.000006  -0.000020   0.000105  -0.000001   0.000069   0.003188
    22  H   -0.000012   0.000002  -0.000047   0.000002  -0.000137   0.000069
    23  H   -0.000075  -0.000023  -0.001124  -0.000032  -0.000090  -0.000111
    24  H   -0.009620  -0.000003   0.000086  -0.000043  -0.000001  -0.000001
    25  H    0.004519  -0.000005  -0.000051  -0.001483  -0.000002   0.000002
    26  H   -0.000001  -0.000044  -0.001701  -0.000021  -0.000003   0.000003
    27  H    0.000140   0.000289   0.000048  -0.000032  -0.000001   0.000000
    28  H    0.000008  -0.000016   0.000128  -0.000081   0.000000   0.000000
    29  H    0.000002   0.000697   0.000030  -0.000777   0.000010   0.000004
    30  H    0.000046  -0.000003  -0.000003   0.003143   0.000002   0.000000
    31  H   -0.000006  -0.000070   0.000001   0.000307   0.000000   0.000000
             19         20         21         22         23         24
     1  C    0.026059  -0.098308  -0.088385  -0.077783  -0.072383   0.000217
     2  C   -0.033866  -0.098810  -0.014105   0.000070   0.017079   0.126000
     3  C    0.004880  -0.017169   0.009020  -0.012850   0.003548  -0.007160
     4  C    0.008837   0.061595   0.000220   0.003241   0.009618  -0.129433
     5  C   -0.049144   0.034328  -0.006292   0.029951  -0.015535   0.006748
     6  C    0.321918   0.451877   0.036297   0.003678  -0.022376   0.012017
     7  C    0.018879   0.002572   0.416392   0.409597   0.449304  -0.007356
     8  O    0.010520  -0.001042   0.000830   0.000389  -0.011743   0.212610
     9  C    0.016031  -0.007987  -0.001269  -0.000045  -0.000877   0.039423
    10  C   -0.000292  -0.001212   0.000249  -0.000464   0.001151  -0.013334
    11  C   -0.001174   0.000733  -0.000077   0.000117   0.000235   0.000127
    12  H   -0.006849  -0.001583  -0.004242  -0.003661   0.004719   0.000009
    13  H   -0.004937  -0.003961   0.000006  -0.000012  -0.000075  -0.009620
    14  H   -0.000021   0.000010  -0.000020   0.000002  -0.000023  -0.000003
    15  H    0.000068  -0.000015   0.000105  -0.000047  -0.001124   0.000086
    16  H    0.001434   0.000021  -0.000001   0.000002  -0.000032  -0.000043
    17  H    0.002407  -0.000044   0.000069  -0.000137  -0.000090  -0.000001
    18  H   -0.000027  -0.000127   0.003188   0.000069  -0.000111  -0.000001
    19  H    0.548746  -0.025244  -0.000139   0.000048  -0.000110  -0.000282
    20  H   -0.025244   0.533763   0.000075   0.002996   0.000104  -0.000128
    21  H   -0.000139   0.000075   0.549670  -0.026516  -0.028027  -0.000005
    22  H    0.000048   0.002996  -0.026516   0.539156  -0.025380  -0.000002
    23  H   -0.000110   0.000104  -0.028027  -0.025380   0.504289   0.000403
    24  H   -0.000282  -0.000128  -0.000005  -0.000002   0.000403   0.401362
    25  H    0.000001  -0.000012   0.000000   0.000000   0.000000  -0.000064
    26  H    0.000000   0.000000   0.000000   0.000000   0.000003   0.000027
    27  H   -0.000001   0.000003   0.000000   0.000000   0.000009   0.002883
    28  H    0.000000   0.000000   0.000000   0.000000   0.000000   0.000057
    29  H    0.000001   0.000000   0.000000   0.000000   0.000000   0.000001
    30  H    0.000002   0.000000   0.000000   0.000000   0.000000  -0.000006
    31  H    0.000000   0.000000   0.000000   0.000000   0.000000   0.000002
             25         26         27         28         29         30
     1  C    0.001126   0.001036  -0.003394   0.000013   0.000466  -0.000399
     2  C   -0.011530   0.005570  -0.015813   0.008530  -0.000749  -0.010161
     3  C    0.002155   0.008780  -0.027502  -0.008232  -0.006255   0.016852
     4  C   -0.022798  -0.014174   0.028259   0.041658   0.004067   0.010358
     5  C   -0.003834  -0.000957   0.004914   0.000487  -0.000770  -0.001815
     6  C    0.005800   0.001870   0.000345   0.000367  -0.000842  -0.000824
     7  C   -0.000126  -0.000401  -0.000009  -0.000100   0.000040   0.000064
     8  O   -0.004679  -0.000455   0.003764  -0.000203  -0.000093   0.000143
     9  C    0.295633  -0.091715  -0.043002  -0.131462  -0.098763  -0.094675
    10  C    0.005532   0.445427   0.402694   0.449641  -0.003401   0.002954
    11  C   -0.000419  -0.003278   0.007538  -0.003443   0.455957   0.437019
    12  H    0.000000   0.000000   0.000000   0.000000   0.000000   0.000000
    13  H    0.004519  -0.000001   0.000140   0.000008   0.000002   0.000046
    14  H   -0.000005  -0.000044   0.000289  -0.000016   0.000697  -0.000003
    15  H   -0.000051  -0.001701   0.000048   0.000128   0.000030  -0.000003
    16  H   -0.001483  -0.000021  -0.000032  -0.000081  -0.000777   0.003143
    17  H   -0.000002  -0.000003  -0.000001   0.000000   0.000010   0.000002
    18  H    0.000002   0.000003   0.000000   0.000000   0.000004   0.000000
    19  H    0.000001   0.000000  -0.000001   0.000000   0.000001   0.000002
    20  H   -0.000012   0.000000   0.000003   0.000000   0.000000   0.000000
    21  H    0.000000   0.000000   0.000000   0.000000   0.000000   0.000000
    22  H    0.000000   0.000000   0.000000   0.000000   0.000000   0.000000
    23  H    0.000000   0.000003   0.000009   0.000000   0.000000   0.000000
    24  H   -0.000064   0.000027   0.002883   0.000057   0.000001  -0.000006
    25  H    0.590326   0.004848  -0.002830  -0.004368   0.005062  -0.003996
    26  H    0.004848   0.524048  -0.026426  -0.027454   0.003250   0.000046
    27  H   -0.002830  -0.026426   0.539740  -0.026022  -0.000015  -0.000143
    28  H   -0.004368  -0.027454  -0.026022   0.532836  -0.000075   0.000046
    29  H    0.005062   0.003250  -0.000015  -0.000075   0.532073  -0.027596
    30  H   -0.003996   0.000046  -0.000143   0.000046  -0.027596   0.531161
    31  H   -0.003635  -0.000250   0.000084   0.002651  -0.028177  -0.025333
             31
     1  C   -0.000272
     2  C   -0.003631
     3  C   -0.001350
     4  C    0.041106
     5  C    0.000866
     6  C    0.000103
     7  C   -0.000017
     8  O   -0.000021
     9  C   -0.138022
    10  C    0.003855
    11  C    0.455657
    12  H    0.000000
    13  H   -0.000006
    14  H   -0.000070
    15  H    0.000001
    16  H    0.000307
    17  H    0.000000
    18  H    0.000000
    19  H    0.000000
    20  H    0.000000
    21  H    0.000000
    22  H    0.000000
    23  H    0.000000
    24  H    0.000002
    25  H   -0.003635
    26  H   -0.000250
    27  H    0.000084
    28  H    0.002651
    29  H   -0.028177
    30  H   -0.025333
    31  H    0.532967
 Mulliken atomic charges:
              1
     1  C    0.290361
     2  C    0.119568
     3  C   -0.270259
     4  C   -0.054962
     5  C   -0.542306
     6  C   -0.563764
     7  C   -0.713683
     8  O   -0.543379
     9  C    0.087883
    10  C   -0.544602
    11  C   -0.665740
    12  H    0.149445
    13  H    0.135074
    14  H    0.157044
    15  H    0.177680
    16  H    0.147128
    17  H    0.157280
    18  H    0.155518
    19  H    0.162254
    20  H    0.167565
    21  H    0.152958
    22  H    0.157581
    23  H    0.187422
    24  H    0.365465
    25  H    0.144828
    26  H    0.171973
    27  H    0.154478
    28  H    0.165035
    29  H    0.165854
    30  H    0.163119
    31  H    0.163184
 Sum of Mulliken atomic charges =   0.00000
 Mulliken charges with hydrogens summed into heavy atoms:
              1
     1  C    0.439805
     2  C    0.254642
     3  C    0.064465
     4  C    0.092166
     5  C   -0.229508
     6  C   -0.233945
     7  C   -0.215722
     8  O   -0.177914
     9  C    0.232711
    10  C   -0.053117
    11  C   -0.173584
 Sum of Mulliken charges with hydrogens summed into heavy atoms =   0.00000
 Electronic spatial extent (au):  <R**2>=           2029.9441
 Charge=              0.0000 electrons
 Dipole moment (field-independent basis, Debye):
    X=             -1.5197    Y=             -0.4085    Z=             -0.9740  Tot=              1.8507
 Quadrupole moment (field-independent basis, Debye-Ang):
   XX=            -72.0328   YY=            -72.0811   ZZ=            -71.6435
   XY=             -3.9841   XZ=             -1.0677   YZ=             -0.9868
 Traceless Quadrupole moment (field-independent basis, Debye-Ang):
   XX=             -0.1137   YY=             -0.1619   ZZ=              0.2756
   XY=             -3.9841   XZ=             -1.0677   YZ=             -0.9868
 Octapole moment (field-independent basis, Debye-Ang**2):
  XXX=             -0.0649  YYY=             11.0187  ZZZ=             -3.1645  XYY=             -8.4597
  XXY=              4.2641  XXZ=             -1.9340  XZZ=              0.4088  YZZ=              1.4721
  YYZ=             -0.0709  XYZ=             -1.1652
 Hexadecapole moment (field-independent basis, Debye-Ang**3):
 XXXX=          -1817.7172 YYYY=           -562.9711 ZZZZ=           -432.8697 XXXY=            -10.2372
 XXXZ=            -11.1107 YYYX=            -20.5482 YYYZ=              0.0685 ZZZX=              1.4714
 ZZZY=              0.4172 XXYY=           -399.1932 XXZZ=           -381.9019 YYZZ=           -164.2267
 XXYZ=             -5.3177 YYXZ=             -3.5917 ZZXY=             -1.2847
 N-N= 7.000911852149D+02 E-N=-2.485653904999D+03  KE= 4.636974231277D+02
 1\1\GINC-COMPUTE-10-6\SP\RmPW1PW91\6-31+G(d,p)\C10H20O1\ASAROTTI.IQUIR
 \19-Sep-2024\0\\# mPW1PW91/6-31+G** nmr scrf=(pcm,solvent=benzene)\\co
 mment\\0,1\C,0,2.306943,-0.537758,-0.205207\C,0,0.255751,0.908991,-0.8
 79698\C,0,-0.052136,-1.120228,0.617007\C,0,-0.688452,-0.25107,-0.48370
 8\C,0,1.319043,-1.659953,0.179233\C,0,1.654415,0.396388,-1.249045\C,0,
 2.855153,0.212048,1.020566\O,0,0.409943,1.893713,0.154854\C,0,-2.14348
 1,0.215079,-0.179438\C,0,-2.385121,0.66878,1.273016\C,0,-3.164141,-0.8
 71955,-0.557103\H,0,3.167358,-1.012915,-0.698944\H,0,-0.169415,1.40096
 4,-1.771024\H,0,-0.714872,-1.959341,0.865532\H,0,0.060521,-0.529487,1.
 533042\H,0,-0.750666,-0.874719,-1.390778\H,0,1.17741,-2.323141,-0.6873
 31\H,0,1.751706,-2.279446,0.976023\H,0,1.557364,-0.152262,-2.196518\H,
 0,2.299627,1.261052,-1.446619\H,0,3.360635,-0.48336,1.702558\H,0,3.586
 561,0.969373,0.713785\H,0,2.066433,0.730145,1.571206\H,0,-0.422771,2.3
 84503,0.21699\H,0,-2.343688,1.078929,-0.835613\H,0,-2.33827,-0.179515,
 1.965538\H,0,-1.647793,1.401861,1.613292\H,0,-3.381912,1.115047,1.3710
 93\H,0,-3.00397,-1.786261,0.028045\H,0,-3.091788,-1.138089,-1.618245\H
 ,0,-4.18986,-0.534977,-0.364606\\Version=AM64L-G09RevC.01\State=1-A\HF
 =-468.2774632\RMSD=3.147e-09\Dipole=-0.5978821,-0.160708,-0.3832093\Qu
 adrupole=-0.0844983,-0.120397,0.2048954,-2.9620575,-0.7937901,-0.73364
 19\PG=C01 [X(C10H20O1)]\\@


 IF YOU PERCEIVE THAT THERE ARE FOUR POSSIBLE WAYS IN
 WHICH A PROCEDURE CAN GO WRONG AND CIRCUMVENT THESE, 
 THEN A FIFTH WAY WILL DEVELOP.

                              -- MURPHY'S TWELFTH LAW
 Job cpu time:  0 days  0 hours 13 minutes 44.5 seconds.
 File lengths (MBytes):  RWF=    120 Int=      0 D2E=      0 Chk=      7 Scr=      1
 Normal termination of Gaussian 09 at Thu Sep 19 10:30:19 2024.
