 Entering Gaussian System, Link 0=g09
 Input=/home/asarotti.iquir/SCF2/04_Mentol12_OptB_NMR_benzene.gjc
 Output=/home/asarotti.iquir/SCF2/04_Mentol12_OptB_NMR_benzene.log
 Initial command:
 /opt/ohpc/pub/apps/software/Gaussian/09/AMD64.SSE4a-enabled/g09/l1.exe /local/asarotti.iquir/Gau-2487178.inp -scrdir=/local/asarotti.iquir/
 Entering Link 1 = /opt/ohpc/pub/apps/software/Gaussian/09/AMD64.SSE4a-enabled/g09/l1.exe PID=   2487179.
  
 Copyright (c) 1988,1990,1992,1993,1995,1998,2003,2009,2011,
            Gaussian, Inc.  All Rights Reserved.
  
 This is part of the Gaussian(R) 09 program.  It is based on
 the Gaussian(R) 03 system (copyright 2003, Gaussian, Inc.),
 the Gaussian(R) 98 system (copyright 1998, Gaussian, Inc.),
 the Gaussian(R) 94 system (copyright 1995, Gaussian, Inc.),
 the Gaussian 92(TM) system (copyright 1992, Gaussian, Inc.),
 the Gaussian 90(TM) system (copyright 1990, Gaussian, Inc.),
 the Gaussian 88(TM) system (copyright 1988, Gaussian, Inc.),
 the Gaussian 86(TM) system (copyright 1986, Carnegie Mellon
 University), and the Gaussian 82(TM) system (copyright 1983,
 Carnegie Mellon University). Gaussian is a federally registered
 trademark of Gaussian, Inc.
  
 This software contains proprietary and confidential information,
 including trade secrets, belonging to Gaussian, Inc.
  
 This software is provided under written license and may be
 used, copied, transmitted, or stored only in accord with that
 written license.
  
 The following legend is applicable only to US Government
 contracts under FAR:
  
                    RESTRICTED RIGHTS LEGEND
  
 Use, reproduction and disclosure by the US Government is
 subject to restrictions as set forth in subparagraphs (a)
 and (c) of the Commercial Computer Software - Restricted
 Rights clause in FAR 52.227-19.
  
 Gaussian, Inc.
 340 Quinnipiac St., Bldg. 40, Wallingford CT 06492
  
  
 ---------------------------------------------------------------
 Warning -- This program may not be used in any manner that
 competes with the business of Gaussian, Inc. or will provide
 assistance to any competitor of Gaussian, Inc.  The licensee
 of this program is prohibited from giving any competitor of
 Gaussian, Inc. access to this program.  By using this program,
 the user acknowledges that Gaussian, Inc. is engaged in the
 business of creating and licensing software in the field of
 computational chemistry and represents and warrants to the
 licensee that it is not a competitor of Gaussian, Inc. and that
 it will not use this program in any manner prohibited above.
 ---------------------------------------------------------------
  

 Cite this work as:
 Gaussian 09, Revision C.01,
 M. J. Frisch, G. W. Trucks, H. B. Schlegel, G. E. Scuseria, 
 M. A. Robb, J. R. Cheeseman, G. Scalmani, V. Barone, B. Mennucci, 
 G. A. Petersson, H. Nakatsuji, M. Caricato, X. Li, H. P. Hratchian, 
 A. F. Izmaylov, J. Bloino, G. Zheng, J. L. Sonnenberg, M. Hada, 
 M. Ehara, K. Toyota, R. Fukuda, J. Hasegawa, M. Ishida, T. Nakajima, 
 Y. Honda, O. Kitao, H. Nakai, T. Vreven, J. A. Montgomery, Jr., 
 J. E. Peralta, F. Ogliaro, M. Bearpark, J. J. Heyd, E. Brothers, 
 K. N. Kudin, V. N. Staroverov, T. Keith, R. Kobayashi, J. Normand, 
 K. Raghavachari, A. Rendell, J. C. Burant, S. S. Iyengar, J. Tomasi, 
 M. Cossi, N. Rega, J. M. Millam, M. Klene, J. E. Knox, J. B. Cross, 
 V. Bakken, C. Adamo, J. Jaramillo, R. Gomperts, R. E. Stratmann, 
 O. Yazyev, A. J. Austin, R. Cammi, C. Pomelli, J. W. Ochterski, 
 R. L. Martin, K. Morokuma, V. G. Zakrzewski, G. A. Voth, 
 P. Salvador, J. J. Dannenberg, S. Dapprich, A. D. Daniels, 
 O. Farkas, J. B. Foresman, J. V. Ortiz, J. Cioslowski, 
 and D. J. Fox, Gaussian, Inc., Wallingford CT, 2010.
 
 ******************************************
 Gaussian 09:  AM64L-G09RevC.01 23-Sep-2011
                19-Sep-2024 
 ******************************************
 %nprocshared=4
 Will use up to    4 processors via shared memory.
 %mem=100mw
 --------------------------------------------------
 # mPW1PW91/6-31+G** nmr scrf=(pcm,solvent=benzene)
 --------------------------------------------------
 1/38=1/1;
 2/12=2,17=6,18=5,40=1/2;
 3/5=1,6=6,7=111,11=2,16=1,25=1,30=1,70=2201,72=12,74=-7/1,2,8,3;
 4//1;
 5/5=2,38=5,53=12/2;
 8/6=1,10=90,11=11/1;
 10/13=100,45=16/2;
 6/7=2,8=2,9=2,10=2,28=1/1;
 99/9=1/99;
 -------
 comment
 -------
 Charge =  0 Multiplicity = 1
 Symbolic Z-Matrix:
 6                    -2.29922   0.54127  -0.21684 
 6                    -0.24021  -0.91835  -0.87682 
 6                     0.06072   1.10146   0.63314 
 6                     0.69862   0.24776  -0.48185 
 6                    -1.30977   1.65206   0.20038 
 6                    -1.63767  -0.39342  -1.2584 
 6                    -2.89789  -0.188     1.00133 
 8                    -0.31179  -1.96819   0.09751 
 6                     2.16815  -0.18691  -0.2179 
 6                     2.41488  -0.82816   1.15815 
 6                     3.14089   0.98448  -0.44037 
 1                    -3.14615   1.02431  -0.72426 
 1                     0.18935  -1.41796  -1.75373 
 1                     0.72195   1.93553   0.89731 
 1                    -0.04579   0.50902   1.55268 
 1                     0.72952   0.88728  -1.3795 
 1                    -1.15819   2.32988  -0.65195 
 1                    -1.74675   2.2584    1.00501 
 1                    -1.5353    0.16621  -2.19932 
 1                    -2.28758  -1.25139  -1.47058 
 1                    -3.54729   0.48961   1.56844 
 1                    -3.49876  -1.05144   0.69483 
 1                    -2.14004  -0.5479    1.70866 
 1                    -0.68957  -1.59888   0.90909 
 1                     2.4018   -0.94923  -0.97676 
 1                     2.24303  -0.11328   1.97283 
 1                     1.76587  -1.69319   1.31027 
 1                     3.45642  -1.16251   1.23718 
 1                     2.97457   1.79155   0.28437 
 1                     3.03604   1.41193  -1.44515 
 1                     4.18011   0.65442  -0.32445 
 
                          Input orientation:                          
 ---------------------------------------------------------------------
 Center     Atomic      Atomic             Coordinates (Angstroms)
 Number     Number       Type             X           Y           Z
 ---------------------------------------------------------------------
      1          6           0       -2.299215    0.541271   -0.216838
      2          6           0       -0.240214   -0.918345   -0.876820
      3          6           0        0.060717    1.101458    0.633135
      4          6           0        0.698618    0.247757   -0.481854
      5          6           0       -1.309768    1.652060    0.200382
      6          6           0       -1.637667   -0.393424   -1.258395
      7          6           0       -2.897889   -0.187998    1.001330
      8          8           0       -0.311786   -1.968189    0.097508
      9          6           0        2.168153   -0.186907   -0.217899
     10          6           0        2.414879   -0.828164    1.158153
     11          6           0        3.140895    0.984484   -0.440368
     12          1           0       -3.146151    1.024311   -0.724256
     13          1           0        0.189345   -1.417957   -1.753726
     14          1           0        0.721946    1.935525    0.897309
     15          1           0       -0.045794    0.509024    1.552678
     16          1           0        0.729517    0.887280   -1.379503
     17          1           0       -1.158189    2.329882   -0.651950
     18          1           0       -1.746746    2.258403    1.005011
     19          1           0       -1.535297    0.166208   -2.199318
     20          1           0       -2.287585   -1.251391   -1.470583
     21          1           0       -3.547287    0.489606    1.568443
     22          1           0       -3.498760   -1.051441    0.694826
     23          1           0       -2.140040   -0.547895    1.708664
     24          1           0       -0.689573   -1.598883    0.909094
     25          1           0        2.401801   -0.949226   -0.976756
     26          1           0        2.243028   -0.113279    1.972828
     27          1           0        1.765872   -1.693190    1.310274
     28          1           0        3.456424   -1.162511    1.237184
     29          1           0        2.974569    1.791547    0.284371
     30          1           0        3.036039    1.411932   -1.445146
     31          1           0        4.180111    0.654420   -0.324450
 ---------------------------------------------------------------------
                    Distance matrix (angstroms):
                    1          2          3          4          5
     1  C    0.000000
     2  C    2.608743   0.000000
     3  C    2.570125   2.539710   0.000000
     4  C    3.023803   1.548289   1.542376   0.000000
     5  C    1.544969   2.985179   1.539047   2.543841   0.000000
     6  C    1.547948   1.540784   2.949079   2.544083   2.533684
     7  C    1.540836   3.335280   3.248325   3.914662   2.559191
     8  O    3.216532   1.434089   3.138214   2.503396   3.756695
     9  C    4.526325   2.601809   2.612552   1.555036   3.956348
    10  C    5.097905   3.346456   3.088877   2.606296   4.576225
    11  C    5.462710   3.904247   3.263983   2.551314   4.545835
    12  H    1.099137   3.498808   3.483169   3.929891   2.149727
    13  H    3.520445   1.096858   3.472910   2.156762   3.935846
    14  H    3.508943   3.495405   1.096667   2.179724   2.166546
    15  H    2.865333   2.824472   1.099037   2.182139   2.175515
    16  H    3.262626   2.110296   2.131637   1.102596   2.690652
    17  H    2.165731   3.382931   2.155505   2.794979   1.099495
    18  H    2.178688   3.987813   2.178012   3.497609   1.098194
    19  H    2.157422   2.145343   3.383008   2.818991   2.831462
    20  H    2.187613   2.157592   3.933961   3.484600   3.489739
    21  H    2.178894   4.347225   3.777149   4.721220   2.868690
    22  H    2.192435   3.620208   4.160367   4.548678   3.513556
    23  H    2.217922   3.229752   2.953042   3.672793   2.793576
    24  H    2.904984   1.963299   2.816191   2.696644   3.384604
    25  H    4.989851   2.644085   3.503959   2.139750   4.682744
    26  H    5.084786   3.864598   2.834227   2.922501   4.345152
    27  H    4.883628   3.067270   3.343072   2.849216   4.677833
    28  H    6.176118   4.265415   4.125683   3.542519   5.631461
    29  H    5.443087   4.361962   3.014696   2.854880   4.287430
    30  H    5.543620   4.060421   3.642552   2.783302   4.653113
    31  H    6.481207   4.724190   4.252790   3.508696   5.604418
                    6          7          8          9         10
     6  C    0.000000
     7  C    2.595519   0.000000
     8  O    2.465019   3.267094   0.000000
     9  C    3.950892   5.210691   3.069616   0.000000
    10  C    4.738336   5.353495   3.139957   1.538052   0.000000
    11  C    5.040085   6.318237   4.574778   1.538791   2.523502
    12  H    2.137943   2.123435   4.202853   5.474055   6.156312
    13  H    2.152439   4.316729   1.995233   2.791045   3.712128
    14  H    3.954597   4.198020   4.116706   2.799986   3.251467
    15  H    3.354192   2.987352   2.885283   2.919045   2.828186
    16  H    2.694147   4.470197   3.379286   2.138428   3.496125
    17  H    2.830913   3.478449   4.444266   4.193707   5.100641
    18  H    3.488136   2.703705   4.554860   4.775090   5.183577
    19  H    1.099547   3.496608   3.365715   4.215003   5.278757
    20  H    1.097053   2.759281   2.622306   4.749310   5.403938
    21  H    3.523834   1.096577   4.321212   6.026188   6.119827
    22  H    2.776999   1.095684   3.369573   5.804687   5.935962
    23  H    3.013251   1.097352   2.820562   4.733126   4.596618
    24  H    2.655188   2.622168   0.968391   3.380886   3.208373
    25  H    4.087241   5.707802   3.091259   1.100720   2.138379
    26  H    5.057576   5.232439   3.672137   2.193242   1.097401
    27  H    4.457749   4.910368   2.421382   2.183124   1.092072
    28  H    5.724436   6.432931   4.018381   2.174560   1.096745
    29  H    5.331693   6.238461   4.997065   2.194735   2.817736
    30  H    5.013752   6.614871   5.001293   2.194458   3.490134
    31  H    5.984711   7.250203   5.218550   2.183383   2.740841
                   11         12         13         14         15
    11  C    0.000000
    12  H    6.293578   0.000000
    13  H    4.025951   4.260283   0.000000
    14  H    2.923213   4.292081   4.307841   0.000000
    15  H    3.788572   3.881000   3.834169   1.747523   0.000000
    16  H    2.589627   3.933056   2.397070   2.506541   3.056447
    17  H    4.509655   2.379440   4.132318   2.467920   3.068115
    18  H    5.253668   2.543950   4.987454   2.492045   2.500701
    19  H    5.062633   2.346700   2.383804   4.220750   4.051372
    20  H    5.960610   2.544201   2.498619   4.982030   4.155093
    21  H    7.000857   2.388156   5.351450   4.557132   3.501582
    22  H    7.036951   2.539069   4.442056   5.174681   3.885091
    23  H    5.903795   3.066462   4.262768   3.875130   2.351016
    24  H    4.813244   3.947626   2.809954   3.805859   2.296067
    25  H    2.138506   5.893927   2.391308   3.828292   3.809889
    26  H    2.799065   6.132832   4.450506   2.769121   2.408836
    27  H    3.482151   5.970937   3.456774   3.798407   2.861929
    28  H    2.742868   7.226578   4.436733   4.146168   3.893468
    29  H    1.097389   6.250535   4.712985   2.338960   3.517963
    30  H    1.096944   6.236137   4.025812   3.334107   4.393164
    31  H    1.096517   7.346481   4.718452   3.884949   4.626340
                   16         17         18         19         20
    16  H    0.000000
    17  H    2.484727   0.000000
    18  H    3.701049   1.759838   0.000000
    19  H    2.514244   2.686642   3.832716   0.000000
    20  H    3.699340   3.843333   4.328941   1.762549   0.000000
    21  H    5.209566   3.744937   2.586126   4.283540   3.722042
    22  H    5.093114   4.327288   3.757770   3.703232   2.489161
    23  H    4.453185   3.849432   2.919780   4.018455   3.259492
    24  H    3.665037   4.253428   4.000684   3.673285   2.887431
    25  H    2.516246   4.850936   5.605955   4.270783   4.724988
    26  H    3.811818   4.942345   4.741291   5.635659   5.803347
    27  H    3.868819   5.346547   5.295919   5.164525   4.935470
    28  H    4.299386   6.087716   6.231335   6.204218   6.350869
    29  H    2.937079   4.271556   4.798759   5.399012   6.326895
    30  H    2.366350   4.366159   5.440112   4.797678   5.952723
    31  H    3.615793   5.604630   6.282345   6.034846   6.839359
                   21         22         23         24         25
    21  H    0.000000
    22  H    1.772114   0.000000
    23  H    1.753971   1.768487   0.000000
    24  H    3.600425   2.870041   1.961566   0.000000
    25  H    6.628720   6.133617   5.291585   3.679005   0.000000
    26  H    5.835644   5.956641   4.412478   3.455242   3.069864
    27  H    5.749862   5.339192   4.089812   2.489789   2.487648
    28  H    7.203554   6.977182   5.649819   4.181788   2.461554
    29  H    6.773367   7.082022   5.801795   5.031027   3.070886
    30  H    7.298807   7.304196   6.370183   5.337381   2.489320
    31  H    7.957568   7.931831   6.747105   5.505709   2.481848
                   26         27         28         29         30
    26  H    0.000000
    27  H    1.778419   0.000000
    28  H    1.764763   1.773395   0.000000
    29  H    2.648472   3.828422   3.141098   0.000000
    30  H    3.825922   4.341365   3.741574   1.771755   0.000000
    31  H    3.101474   3.743280   2.502731   1.765518   1.771633
                   31
    31  H    0.000000
 Stoichiometry    C10H20O
 Framework group  C1[X(C10H20O)]
 Deg. of freedom    87
 Full point group                 C1      NOp   1
 Largest Abelian subgroup         C1      NOp   1
 Largest concise Abelian subgroup C1      NOp   1
                         Standard orientation:                         
 ---------------------------------------------------------------------
 Center     Atomic      Atomic             Coordinates (Angstroms)
 Number     Number       Type             X           Y           Z
 ---------------------------------------------------------------------
      1          6           0        2.299215   -0.541271   -0.216838
      2          6           0        0.240214    0.918345   -0.876820
      3          6           0       -0.060717   -1.101458    0.633135
      4          6           0       -0.698618   -0.247757   -0.481854
      5          6           0        1.309768   -1.652060    0.200382
      6          6           0        1.637667    0.393424   -1.258395
      7          6           0        2.897889    0.187998    1.001330
      8          8           0        0.311786    1.968189    0.097508
      9          6           0       -2.168153    0.186907   -0.217899
     10          6           0       -2.414879    0.828164    1.158153
     11          6           0       -3.140895   -0.984484   -0.440368
     12          1           0        3.146151   -1.024311   -0.724256
     13          1           0       -0.189345    1.417957   -1.753726
     14          1           0       -0.721946   -1.935525    0.897309
     15          1           0        0.045794   -0.509024    1.552678
     16          1           0       -0.729517   -0.887280   -1.379503
     17          1           0        1.158189   -2.329882   -0.651950
     18          1           0        1.746746   -2.258403    1.005011
     19          1           0        1.535297   -0.166208   -2.199318
     20          1           0        2.287585    1.251391   -1.470583
     21          1           0        3.547287   -0.489606    1.568443
     22          1           0        3.498760    1.051441    0.694826
     23          1           0        2.140040    0.547895    1.708664
     24          1           0        0.689573    1.598883    0.909094
     25          1           0       -2.401801    0.949226   -0.976756
     26          1           0       -2.243028    0.113279    1.972828
     27          1           0       -1.765872    1.693190    1.310274
     28          1           0       -3.456424    1.162511    1.237184
     29          1           0       -2.974569   -1.791547    0.284371
     30          1           0       -3.036039   -1.411932   -1.445146
     31          1           0       -4.180111   -0.654420   -0.324450
 ---------------------------------------------------------------------
 Rotational constants (GHZ):      1.7806314      0.7351056      0.6594175
 Standard basis: 6-31+G(d,p) (6D, 7F)
 There are   309 symmetry adapted basis functions of A   symmetry.
 Integral buffers will be    131072 words long.
 Raffenetti 2 integral format.
 Two-electron integral symmetry is turned on.
   309 basis functions,   492 primitive gaussians,   309 cartesian basis functions
    44 alpha electrons       44 beta electrons
       nuclear repulsion energy       699.1672123083 Hartrees.
 NAtoms=   31 NActive=   31 NUniq=   31 SFac= 1.00D+00 NAtFMM=   60 NAOKFM=F Big=F
 ------------------------------------------------------------------------------
 Polarizable Continuum Model (PCM)
 =================================
 Model                : PCM.
 Atomic radii         : UFF (Universal Force Field).
 Polarization charges : Total charges.
 Charge compensation  : None.
 Solution method      : Matrix inversion.
 Cavity type          : Scaled VdW (van der Waals Surface) (Alpha=1.100).
 Cavity algorithm     : GePol (No added spheres)
                        Default sphere list used, NSphG=   31.
                        Lebedev-Laikov grids with approx.  5.0 points / Ang**2.
                        Smoothing algorithm: Karplus/York (Gamma=1.0000).
                        Polarization charges: spherical gaussians, with
                                              point-specific exponents (IZeta= 3).
                        Self-potential: point-specific (ISelfS= 7).
                        Self-field    : sphere-specific E.n sum rule (ISelfD= 2).
 Solvent              : Benzene, Eps=   2.270600 Eps(inf)=   2.253301
 ------------------------------------------------------------------------------
 One-electron integrals computed using PRISM.
 NBasis=   309 RedAO= T  NBF=   309
 NBsUse=   309 1.00D-06 NBFU=   309
 Harris functional with IExCor=  908 diagonalized for initial guess.
 ExpMin= 4.38D-02 ExpMax= 5.48D+03 ExpMxC= 8.25D+02 IAcc=2 IRadAn=         4 AccDes= 0.00D+00
 HarFok:  IExCor=  908 AccDes= 0.00D+00 IRadAn=         4 IDoV= 1
 ScaDFX=  1.000000  1.000000  1.000000  1.000000
 FoFCou: FMM=F IPFlag=           0 FMFlag=      100000 FMFlg1=           0
         NFxFlg=           0 DoJE=T BraDBF=F KetDBF=T FulRan=T
         Omega=  0.000000  0.000000  1.000000  0.000000  0.000000 ICntrl=     500 IOpCl=  0
         NMat0=    1 NMatS0=    1 NMatT0=    0 NMatD0=    1 NMtDS0=    0 NMtDT0=    0
         I1Cent=           4 NGrid=           0.
 Petite list used in FoFCou.
 Initial guess orbital symmetries:
       Occupied  (A) (A) (A) (A) (A) (A) (A) (A) (A) (A) (A) (A)
                 (A) (A) (A) (A) (A) (A) (A) (A) (A) (A) (A) (A)
                 (A) (A) (A) (A) (A) (A) (A) (A) (A) (A) (A) (A)
                 (A) (A) (A) (A) (A) (A) (A) (A)
       Virtual   (A) (A) (A) (A) (A) (A) (A) (A) (A) (A) (A) (A)
                 (A) (A) (A) (A) (A) (A) (A) (A) (A) (A) (A) (A)
                 (A) (A) (A) (A) (A) (A) (A) (A) (A) (A) (A) (A)
                 (A) (A) (A) (A) (A) (A) (A) (A) (A) (A) (A) (A)
                 (A) (A) (A) (A) (A) (A) (A) (A) (A) (A) (A) (A)
                 (A) (A) (A) (A) (A) (A) (A) (A) (A) (A) (A) (A)
                 (A) (A) (A) (A) (A) (A) (A) (A) (A) (A) (A) (A)
                 (A) (A) (A) (A) (A) (A) (A) (A) (A) (A) (A) (A)
                 (A) (A) (A) (A) (A) (A) (A) (A) (A) (A) (A) (A)
                 (A) (A) (A) (A) (A) (A) (A) (A) (A) (A) (A) (A)
                 (A) (A) (A) (A) (A) (A) (A) (A) (A) (A) (A) (A)
                 (A) (A) (A) (A) (A) (A) (A) (A) (A) (A) (A) (A)
                 (A) (A) (A) (A) (A) (A) (A) (A) (A) (A) (A) (A)
                 (A) (A) (A) (A) (A) (A) (A) (A) (A) (A) (A) (A)
                 (A) (A) (A) (A) (A) (A) (A) (A) (A) (A) (A) (A)
                 (A) (A) (A) (A) (A) (A) (A) (A) (A) (A) (A) (A)
                 (A) (A) (A) (A) (A) (A) (A) (A) (A) (A) (A) (A)
                 (A) (A) (A) (A) (A) (A) (A) (A) (A) (A) (A) (A)
                 (A) (A) (A) (A) (A) (A) (A) (A) (A) (A) (A) (A)
                 (A) (A) (A) (A) (A) (A) (A) (A) (A) (A) (A) (A)
                 (A) (A) (A) (A) (A) (A) (A) (A) (A) (A) (A) (A)
                 (A) (A) (A) (A) (A) (A) (A) (A) (A) (A) (A) (A)
                 (A)
 The electronic state of the initial guess is 1-A.
 Requested convergence on RMS density matrix=1.00D-08 within 128 cycles.
 Requested convergence on MAX density matrix=1.00D-06.
 Requested convergence on             energy=1.00D-06.
 No special actions if energy rises.
 Error on total polarization charges =  0.00920
 SCF Done:  E(RmPW1PW91) =  -468.276521903     A.U. after   12 cycles
             Convg  =    0.9227D-08             -V/T =  2.0099
 Range of M.O.s used for correlation:     1   309
 NBasis=   309 NAE=    44 NBE=    44 NFC=     0 NFV=     0
 NROrb=    309 NOA=    44 NOB=    44 NVA=   265 NVB=   265

 **** Warning!!: The largest alpha MO coefficient is  0.65947701D+02

 NEqPCM:  Using equilibrium solvation (IEInf=0, Eps=   2.2706, EpsInf=   2.2533)
          Differentiating once with respect to magnetic field using GIAOs.
          Electric field/nuclear overlap derivatives assumed to be zero.
 FoFCou: FMM=F IPFlag=           0 FMFlag=    10101102 FMFlg1=           0
         NFxFlg=    40000000 DoJE=F BraDBF=F KetDBF=T FulRan=T
         Omega=  0.000000  0.000000  1.000000  0.000000  0.000000 ICntrl=    6100 IOpCl=  0
         NMat0=    1 NMatS0=    1 NMatT0=    0 NMatD0=    1 NMtDS0=    0 NMtDT0=    0
         I1Cent=           7 NGrid=        1905.
 Symmetry not used in FoFCou.
          There are     3 degrees of freedom in the 1st order CPHF.  IDoFFX=0.
      3 vectors produced by pass  0 Test12= 3.89D-13 3.33D-08 XBig12= 3.31D+01 9.46D-01.
 AX will form     3 AO Fock derivatives at one time.
      3 vectors produced by pass  1 Test12= 3.89D-13 3.33D-08 XBig12= 7.07D-02 4.07D-02.
      3 vectors produced by pass  2 Test12= 3.89D-13 3.33D-08 XBig12= 1.00D-04 2.00D-03.
      3 vectors produced by pass  3 Test12= 3.89D-13 3.33D-08 XBig12= 5.03D-07 1.66D-04.
      3 vectors produced by pass  4 Test12= 3.89D-13 3.33D-08 XBig12= 2.20D-09 1.12D-05.
      3 vectors produced by pass  5 Test12= 3.89D-13 3.33D-08 XBig12= 4.60D-12 5.50D-07.
 Inverted reduced A of dimension    18 with in-core refinement.
 Calculating GIAO nuclear magnetic shielding tensors.
 SCF GIAO Magnetic shielding tensor (ppm):
      1  C    Isotropic =   165.7532   Anisotropy =     2.5373
   XX=   164.3803   YX=     1.1098   ZX=     0.7658
   XY=    -1.1545   YY=   165.4712   ZY=    -1.8224
   XZ=    -1.4218   YZ=     1.7054   ZZ=   167.4080
   Eigenvalues:   164.3445   165.4703   167.4447
      2  C    Isotropic =   119.0074   Anisotropy =    40.0308
   XX=   114.3919   YX=     3.7599   ZX=    -5.0383
   XY=    11.5817   YY=   116.4780   ZY=    25.5695
   XZ=     3.7324   YZ=    20.9611   ZZ=   126.1523
   Eigenvalues:    95.3798   115.9478   145.6946
      3  C    Isotropic =   179.7311   Anisotropy =    15.5143
   XX=   187.4245   YX=    -5.4501   ZX=    -2.5608
   XY=    -5.4324   YY=   178.8411   ZY=    -5.5488
   XZ=     0.9602   YZ=     0.2791   ZZ=   172.9277
   Eigenvalues:   171.3828   177.7365   190.0740
      4  C    Isotropic =   147.6837   Anisotropy =    16.9566
   XX=   154.0871   YX=     3.5141   ZX=    -2.9622
   XY=    -9.1041   YY=   143.6156   ZY=     9.2881
   XZ=    -4.8145   YZ=    10.3958   ZZ=   145.3486
   Eigenvalues:   134.5847   149.4784   158.9882
      5  C    Isotropic =   162.7047   Anisotropy =    10.4943
   XX=   167.1128   YX=     3.2023   ZX=     1.6487
   XY=     4.6089   YY=   163.6069   ZY=     3.3115
   XZ=    -0.3073   YZ=    -2.2177   ZZ=   157.3945
   Eigenvalues:   157.3320   161.0813   169.7009
      6  C    Isotropic =   154.6770   Anisotropy =    11.6597
   XX=   161.9465   YX=    -1.8053   ZX=     0.2527
   XY=    -1.9545   YY=   154.3920   ZY=     4.2959
   XZ=     2.6871   YZ=     0.0799   ZZ=   147.6924
   Eigenvalues:   146.7877   154.7931   162.4501
      7  C    Isotropic =   173.2886   Anisotropy =    31.0359
   XX=   166.2207   YX=     5.9789   ZX=    13.6696
   XY=     8.4854   YY=   170.4261   ZY=     1.9738
   XZ=    17.2727   YZ=     3.5757   ZZ=   183.2191
   Eigenvalues:   155.4158   170.4709   193.9792
      8  O    Isotropic =   278.3303   Anisotropy =    33.3742
   XX=   279.1811   YX=   -31.5536   ZX=    -9.1698
   XY=   -20.3718   YY=   262.5610   ZY=   -23.8444
   XZ=     2.0552   YZ=     1.9560   ZZ=   293.2488
   Eigenvalues:   241.2982   293.1129   300.5797
      9  C    Isotropic =   160.2077   Anisotropy =    18.4779
   XX=   171.5024   YX=    -3.9183   ZX=     1.4738
   XY=    -4.2856   YY=   156.0344   ZY=    -2.4170
   XZ=    -2.0317   YZ=    -1.9436   ZZ=   153.0862
   Eigenvalues:   151.6614   156.4353   172.5263
     10  C    Isotropic =   177.6041   Anisotropy =    27.4191
   XX=   172.3179   YX=    -0.9058   ZX=    -5.3845
   XY=     2.2640   YY=   174.8657   ZY=    12.6933
   XZ=    -1.3135   YZ=    16.1590   ZZ=   185.6286
   Eigenvalues:   164.0932   172.8356   195.8834
     11  C    Isotropic =   172.5711   Anisotropy =    38.1283
   XX=   177.1044   YX=    15.6473   ZX=     3.0438
   XY=    18.0638   YY=   177.1520   ZY=    17.9046
   XZ=    -3.7923   YZ=    14.3091   ZZ=   163.4569
   Eigenvalues:   148.8438   170.8795   197.9900
     12  H    Isotropic =    29.7476   Anisotropy =    10.2727
   XX=    33.0335   YX=    -3.3693   ZX=    -2.8374
   XY=    -3.5750   YY=    27.6575   ZY=     2.5706
   XZ=    -3.2882   YZ=     2.4239   ZZ=    28.5517
   Eigenvalues:    25.4319    27.2147    36.5960
     13  H    Isotropic =    27.8042   Anisotropy =     5.6163
   XX=    26.5306   YX=    -0.6649   ZX=     1.0753
   XY=    -0.3863   YY=    26.1666   ZY=    -0.2296
   XZ=     1.5229   YZ=    -2.7509   ZZ=    30.7155
   Eigenvalues:    25.6861    26.1781    31.5484
     14  H    Isotropic =    30.2768   Anisotropy =     8.9751
   XX=    33.2798   YX=     2.3526   ZX=    -1.3708
   XY=     2.1686   YY=    31.9581   ZY=    -4.1254
   XZ=    -1.5191   YZ=    -3.8394   ZZ=    25.5926
   Eigenvalues:    23.6657    30.9046    36.2603
     15  H    Isotropic =    30.1021   Anisotropy =     5.0151
   XX=    30.6832   YX=    -1.5452   ZX=    -0.4076
   XY=    -0.8970   YY=    26.7566   ZY=     1.6079
   XZ=     0.0234   YZ=     1.9526   ZZ=    32.8664
   Eigenvalues:    26.0016    30.8592    33.4455
     16  H    Isotropic =    30.3478   Anisotropy =     4.7567
   XX=    32.0921   YX=     0.5353   ZX=     0.3987
   XY=     1.0867   YY=    27.8542   ZY=     2.9026
   XZ=     0.5861   YZ=     3.3841   ZZ=    31.0971
   Eigenvalues:    25.9074    31.6170    33.5189
     17  H    Isotropic =    30.0237   Anisotropy =     8.9370
   XX=    28.6136   YX=    -0.1453   ZX=    -0.7960
   XY=     0.0655   YY=    33.4790   ZY=     4.7216
   XZ=    -0.6868   YZ=     4.1792   ZZ=    27.9786
   Eigenvalues:    25.3748    28.7146    35.9818
     18  H    Isotropic =    30.0123   Anisotropy =     9.6023
   XX=    29.9768   YX=    -2.6520   ZX=     1.9067
   XY=    -2.6509   YY=    32.0382   ZY=    -4.4943
   XZ=     1.8855   YZ=    -4.0869   ZZ=    28.0219
   Eigenvalues:    25.2840    28.3390    36.4139
     19  H    Isotropic =    29.8824   Anisotropy =     8.2376
   XX=    28.0855   YX=    -0.8317   ZX=    -1.5291
   XY=    -0.9944   YY=    26.6743   ZY=     1.1660
   XZ=    -1.0937   YZ=     1.4400   ZZ=    34.8874
   Eigenvalues:    26.1787    28.0943    35.3741
     20  H    Isotropic =    29.8441   Anisotropy =     8.3004
   XX=    30.5184   YX=     2.8628   ZX=    -1.7584
   XY=     2.0457   YY=    30.0599   ZY=    -3.2735
   XZ=    -2.4558   YZ=    -4.0789   ZZ=    28.9539
   Eigenvalues:    25.7893    28.3651    35.3777
     21  H    Isotropic =    30.5101   Anisotropy =    11.3933
   XX=    32.4512   YX=    -2.5214   ZX=     5.3810
   XY=    -2.2328   YY=    28.2103   ZY=    -1.1660
   XZ=     5.5560   YZ=    -2.5625   ZZ=    30.8688
   Eigenvalues:    26.1177    27.3069    38.1057
     22  H    Isotropic =    30.3959   Anisotropy =     9.4244
   XX=    32.1378   YX=     4.7620   ZX=     1.0461
   XY=     4.7048   YY=    31.5778   ZY=    -0.8486
   XZ=     1.5936   YZ=     0.5251   ZZ=    27.4720
   Eigenvalues:    26.2263    28.2825    36.6788
     23  H    Isotropic =    30.5654   Anisotropy =     4.8348
   XX=    31.5452   YX=    -0.4805   ZX=     1.0105
   XY=    -0.9390   YY=    28.0236   ZY=     3.1816
   XZ=    -0.5217   YZ=     2.9917   ZZ=    32.1273
   Eigenvalues:    26.2650    31.6426    33.7885
     24  H    Isotropic =    30.8723   Anisotropy =    12.5409
   XX=    27.4173   YX=    -1.3526   ZX=     6.5520
   XY=    -2.7720   YY=    30.0203   ZY=    -0.4101
   XZ=     6.4068   YZ=    -1.5381   ZZ=    35.1792
   Eigenvalues:    23.4723    29.9116    39.2329
     25  H    Isotropic =    29.7500   Anisotropy =     7.0617
   XX=    29.4459   YX=    -1.1851   ZX=     2.0322
   XY=    -0.6867   YY=    29.8682   ZY=    -3.8038
   XZ=     1.7987   YZ=    -3.6616   ZZ=    29.9359
   Eigenvalues:    26.0083    28.7840    34.4578
     26  H    Isotropic =    30.9384   Anisotropy =     6.5216
   XX=    29.7292   YX=    -1.3393   ZX=    -1.4487
   XY=    -1.5762   YY=    28.3634   ZY=    -1.1993
   XZ=    -0.9386   YZ=    -2.2617   ZZ=    34.7226
   Eigenvalues:    26.8741    30.6549    35.2861
     27  H    Isotropic =    29.7056   Anisotropy =     7.6057
   XX=    30.5983   YX=     2.6475   ZX=    -2.1272
   XY=     3.3381   YY=    31.5342   ZY=     3.5735
   XZ=    -1.4116   YZ=     4.5227   ZZ=    26.9842
   Eigenvalues:    23.3018    31.0389    34.7760
     28  H    Isotropic =    30.8643   Anisotropy =    10.7976
   XX=    35.0291   YX=    -3.7171   ZX=    -2.0470
   XY=    -3.7441   YY=    29.0835   ZY=     2.4949
   XZ=    -3.1680   YZ=     2.4478   ZZ=    28.4803
   Eigenvalues:    26.2349    28.2952    38.0627
     29  H    Isotropic =    30.5582   Anisotropy =     6.7861
   XX=    30.6274   YX=     2.4586   ZX=     0.0607
   XY=     1.7324   YY=    33.0428   ZY=    -3.2956
   XZ=     0.5793   YZ=    -2.4586   ZZ=    28.0045
   Eigenvalues:    26.3544    30.2380    35.0823
     30  H    Isotropic =    30.7684   Anisotropy =    10.0409
   XX=    29.4633   YX=     2.5862   ZX=     2.3866
   XY=     1.7049   YY=    29.4448   ZY=     5.2931
   XZ=     1.5593   YZ=     3.9697   ZZ=    33.3971
   Eigenvalues:    26.1877    28.6552    37.4623
     31  H    Isotropic =    30.7108   Anisotropy =    10.5267
   XX=    37.6824   YX=    -0.1786   ZX=     0.6276
   XY=     1.0968   YY=    27.6567   ZY=     0.6941
   XZ=     0.3282   YZ=     1.3158   ZZ=    26.7933
   Eigenvalues:    26.1294    28.2744    37.7286
 End of Minotr Frequency-dependent properties file   721 does not exist.
 End of Minotr Frequency-dependent properties file   722 does not exist.

 **********************************************************************

            Population analysis using the SCF density.

 **********************************************************************

 Orbital symmetries:
       Occupied  (A) (A) (A) (A) (A) (A) (A) (A) (A) (A) (A) (A)
                 (A) (A) (A) (A) (A) (A) (A) (A) (A) (A) (A) (A)
                 (A) (A) (A) (A) (A) (A) (A) (A) (A) (A) (A) (A)
                 (A) (A) (A) (A) (A) (A) (A) (A)
       Virtual   (A) (A) (A) (A) (A) (A) (A) (A) (A) (A) (A) (A)
                 (A) (A) (A) (A) (A) (A) (A) (A) (A) (A) (A) (A)
                 (A) (A) (A) (A) (A) (A) (A) (A) (A) (A) (A) (A)
                 (A) (A) (A) (A) (A) (A) (A) (A) (A) (A) (A) (A)
                 (A) (A) (A) (A) (A) (A) (A) (A) (A) (A) (A) (A)
                 (A) (A) (A) (A) (A) (A) (A) (A) (A) (A) (A) (A)
                 (A) (A) (A) (A) (A) (A) (A) (A) (A) (A) (A) (A)
                 (A) (A) (A) (A) (A) (A) (A) (A) (A) (A) (A) (A)
                 (A) (A) (A) (A) (A) (A) (A) (A) (A) (A) (A) (A)
                 (A) (A) (A) (A) (A) (A) (A) (A) (A) (A) (A) (A)
                 (A) (A) (A) (A) (A) (A) (A) (A) (A) (A) (A) (A)
                 (A) (A) (A) (A) (A) (A) (A) (A) (A) (A) (A) (A)
                 (A) (A) (A) (A) (A) (A) (A) (A) (A) (A) (A) (A)
                 (A) (A) (A) (A) (A) (A) (A) (A) (A) (A) (A) (A)
                 (A) (A) (A) (A) (A) (A) (A) (A) (A) (A) (A) (A)
                 (A) (A) (A) (A) (A) (A) (A) (A) (A) (A) (A) (A)
                 (A) (A) (A) (A) (A) (A) (A) (A) (A) (A) (A) (A)
                 (A) (A) (A) (A) (A) (A) (A) (A) (A) (A) (A) (A)
                 (A) (A) (A) (A) (A) (A) (A) (A) (A) (A) (A) (A)
                 (A) (A) (A) (A) (A) (A) (A) (A) (A) (A) (A) (A)
                 (A) (A) (A) (A) (A) (A) (A) (A) (A) (A) (A) (A)
                 (A) (A) (A) (A) (A) (A) (A) (A) (A) (A) (A) (A)
                 (A)
 The electronic state is 1-A.
 Alpha  occ. eigenvalues --  -19.24237 -10.29380 -10.25517 -10.24949 -10.24824
 Alpha  occ. eigenvalues --  -10.24401 -10.24366 -10.24089 -10.24055 -10.23174
 Alpha  occ. eigenvalues --  -10.22525  -1.04808  -0.85942  -0.82137  -0.76558
 Alpha  occ. eigenvalues --   -0.75922  -0.70047  -0.69799  -0.63967  -0.62756
 Alpha  occ. eigenvalues --   -0.57115  -0.55903  -0.51676  -0.47919  -0.47017
 Alpha  occ. eigenvalues --   -0.45764  -0.45392  -0.44602  -0.42968  -0.41982
 Alpha  occ. eigenvalues --   -0.40777  -0.40110  -0.39516  -0.38192  -0.37491
 Alpha  occ. eigenvalues --   -0.35980  -0.35488  -0.34284  -0.34226  -0.33332
 Alpha  occ. eigenvalues --   -0.32335  -0.31833  -0.29868  -0.27118
 Alpha virt. eigenvalues --    0.00328   0.01665   0.01934   0.02608   0.03977
 Alpha virt. eigenvalues --    0.04278   0.04430   0.04692   0.05853   0.06636
 Alpha virt. eigenvalues --    0.06909   0.07550   0.07616   0.08329   0.09170
 Alpha virt. eigenvalues --    0.09577   0.09764   0.10955   0.11196   0.11875
 Alpha virt. eigenvalues --    0.12241   0.12635   0.13063   0.14002   0.14692
 Alpha virt. eigenvalues --    0.15221   0.15435   0.16430   0.17131   0.17217
 Alpha virt. eigenvalues --    0.17879   0.18408   0.18529   0.19183   0.19572
 Alpha virt. eigenvalues --    0.20154   0.20308   0.20909   0.21604   0.22532
 Alpha virt. eigenvalues --    0.22760   0.23153   0.23579   0.23922   0.24628
 Alpha virt. eigenvalues --    0.25123   0.25537   0.25798   0.25972   0.27039
 Alpha virt. eigenvalues --    0.27919   0.28725   0.29183   0.29906   0.30058
 Alpha virt. eigenvalues --    0.30851   0.31289   0.31881   0.32400   0.33642
 Alpha virt. eigenvalues --    0.34332   0.34777   0.35397   0.36423   0.36795
 Alpha virt. eigenvalues --    0.37585   0.38331   0.39538   0.39629   0.40804
 Alpha virt. eigenvalues --    0.44052   0.45227   0.46934   0.50153   0.53471
 Alpha virt. eigenvalues --    0.62874   0.64154   0.65347   0.65967   0.66054
 Alpha virt. eigenvalues --    0.67143   0.69035   0.70971   0.72168   0.72391
 Alpha virt. eigenvalues --    0.73523   0.73999   0.75475   0.76532   0.76924
 Alpha virt. eigenvalues --    0.77701   0.81695   0.82398   0.83365   0.83929
 Alpha virt. eigenvalues --    0.84759   0.86995   0.89178   0.90333   0.93391
 Alpha virt. eigenvalues --    0.94236   0.97722   0.98585   0.98934   1.00344
 Alpha virt. eigenvalues --    1.01367   1.01694   1.02572   1.03056   1.04851
 Alpha virt. eigenvalues --    1.05641   1.07033   1.09102   1.10628   1.11679
 Alpha virt. eigenvalues --    1.12465   1.14039   1.14577   1.16008   1.16498
 Alpha virt. eigenvalues --    1.17167   1.17879   1.19572   1.20704   1.21606
 Alpha virt. eigenvalues --    1.22808   1.26225   1.27564   1.31878   1.32791
 Alpha virt. eigenvalues --    1.35891   1.39457   1.40891   1.41634   1.45434
 Alpha virt. eigenvalues --    1.48200   1.51366   1.51446   1.55545   1.57022
 Alpha virt. eigenvalues --    1.59553   1.60326   1.62988   1.64379   1.66941
 Alpha virt. eigenvalues --    1.70985   1.72175   1.75605   1.77884   1.80697
 Alpha virt. eigenvalues --    1.82152   1.84121   1.85794   1.87074   1.87519
 Alpha virt. eigenvalues --    1.88055   1.89636   1.90400   1.92328   1.93875
 Alpha virt. eigenvalues --    1.94686   1.96817   1.97981   2.01674   2.02967
 Alpha virt. eigenvalues --    2.05581   2.06374   2.07740   2.08460   2.08855
 Alpha virt. eigenvalues --    2.10550   2.12664   2.14197   2.15190   2.15445
 Alpha virt. eigenvalues --    2.15999   2.16394   2.18382   2.18498   2.20010
 Alpha virt. eigenvalues --    2.21716   2.22853   2.24532   2.25361   2.30949
 Alpha virt. eigenvalues --    2.32121   2.33598   2.35753   2.36803   2.37045
 Alpha virt. eigenvalues --    2.39877   2.40940   2.41784   2.42535   2.44035
 Alpha virt. eigenvalues --    2.46008   2.50588   2.51664   2.52933   2.56792
 Alpha virt. eigenvalues --    2.59087   2.60314   2.62330   2.65205   2.66620
 Alpha virt. eigenvalues --    2.67666   2.69132   2.69448   2.69742   2.71521
 Alpha virt. eigenvalues --    2.73216   2.73923   2.74334   2.76132   2.77609
 Alpha virt. eigenvalues --    2.78852   2.80185   2.81366   2.83802   2.85236
 Alpha virt. eigenvalues --    2.87053   2.89469   2.90624   2.91255   2.92178
 Alpha virt. eigenvalues --    2.93583   2.94087   2.95559   2.96322   2.98079
 Alpha virt. eigenvalues --    3.00236   3.02570   3.07374   3.13322   3.29100
 Alpha virt. eigenvalues --    3.29459   3.31747   3.36320   3.37191   3.38492
 Alpha virt. eigenvalues --    3.40687   3.44462   3.48248   3.48819   3.50734
 Alpha virt. eigenvalues --    3.51190   3.53400   3.53909   3.54804   3.56178
 Alpha virt. eigenvalues --    3.57569   3.58627   3.62818   3.64678   4.35635
 Alpha virt. eigenvalues --    4.42697   4.45094   4.52783   4.57470   4.62478
 Alpha virt. eigenvalues --    4.66390   4.76102   4.83156   4.88368   4.95237
          Condensed to atoms (all electrons):
              1          2          3          4          5          6
     1  C    6.643114  -0.027053   0.151616  -0.393626  -0.516518  -0.625058
     2  C   -0.027053   7.424783  -0.219117  -1.603201   0.003055  -0.583452
     3  C    0.151616  -0.219117   6.933098  -0.817861  -0.579903  -0.345485
     4  C   -0.393626  -1.603201  -0.817861   9.180889   0.457621   0.743835
     5  C   -0.516518   0.003055  -0.579903   0.457621   6.415340   0.516164
     6  C   -0.625058  -0.583452  -0.345485   0.743835   0.516164   6.797824
     7  C    0.247445  -0.008557   0.016693  -0.000568  -0.150817  -0.097144
     8  O    0.061171   0.290907   0.017959  -0.079832  -0.049953  -0.184510
     9  C    0.248669   0.821398   0.431115  -2.036576  -0.304286  -0.429752
    10  C    0.020496  -0.144219  -0.029219   0.152800  -0.044648   0.016912
    11  C   -0.026465  -0.169300  -0.000415   0.327454   0.038496   0.023968
    12  H    0.255733   0.023832   0.025052  -0.009417   0.023454   0.003416
    13  H    0.043238   0.263540   0.040115   0.016314  -0.023324   0.019019
    14  H    0.029424   0.034161   0.259536  -0.027154   0.044678   0.003109
    15  H    0.039187   0.006399   0.456348  -0.084632  -0.075465  -0.052971
    16  H    0.038366  -0.004834   0.044441   0.243576  -0.048940  -0.077549
    17  H    0.008137  -0.004609  -0.032031   0.009620   0.363121  -0.047465
    18  H   -0.095042  -0.012789  -0.067171   0.029886   0.424673   0.039294
    19  H    0.066944  -0.026887   0.020891   0.000450  -0.072288   0.282896
    20  H   -0.107333  -0.124654  -0.020439   0.063410   0.044060   0.481206
    21  H   -0.094051  -0.016265   0.007266   0.001647  -0.003065   0.035570
    22  H   -0.095387  -0.005557  -0.017613   0.005956   0.030924   0.014270
    23  H   -0.058448   0.024988   0.014218  -0.007240  -0.005563  -0.018582
    24  H    0.053239   0.016752   0.018941  -0.007859  -0.031522  -0.049244
    25  H    0.001863  -0.019189   0.003779  -0.041421  -0.006661   0.009088
    26  H   -0.000426  -0.005196   0.001000   0.008844  -0.001484   0.002019
    27  H   -0.002426  -0.003104  -0.024794   0.045678   0.004509   0.006227
    28  H   -0.000121   0.009365  -0.005754   0.034390   0.000891   0.000236
    29  H    0.001197   0.002396  -0.002137  -0.010658  -0.002830  -0.000905
    30  H   -0.000396  -0.008563   0.022838  -0.003909  -0.002571  -0.001737
    31  H   -0.000183  -0.004816   0.000058   0.039892   0.000795   0.000124
              7          8          9         10         11         12
     1  C    0.247445   0.061171   0.248669   0.020496  -0.026465   0.255733
     2  C   -0.008557   0.290907   0.821398  -0.144219  -0.169300   0.023832
     3  C    0.016693   0.017959   0.431115  -0.029219  -0.000415   0.025052
     4  C   -0.000568  -0.079832  -2.036576   0.152800   0.327454  -0.009417
     5  C   -0.150817  -0.049953  -0.304286  -0.044648   0.038496   0.023454
     6  C   -0.097144  -0.184510  -0.429752   0.016912   0.023968   0.003416
     7  C    5.351762   0.006896   0.022135  -0.002788  -0.002697  -0.032414
     8  O    0.006896   8.217142  -0.015475   0.009735   0.014266  -0.000230
     9  C    0.022135  -0.015475   7.862106  -0.319664  -0.326043  -0.001340
    10  C   -0.002788   0.009735  -0.319664   5.709031  -0.078754   0.000209
    11  C   -0.002697   0.014266  -0.326043  -0.078754   5.541037   0.000099
    12  H   -0.032414  -0.000230  -0.001340   0.000209   0.000099   0.574358
    13  H    0.001419  -0.061424  -0.043338   0.018470  -0.002352  -0.000152
    14  H    0.001742  -0.001121   0.019752  -0.021254  -0.009667  -0.000116
    15  H    0.002024   0.004336   0.004804   0.006307   0.004814  -0.000071
    16  H    0.000722   0.012220   0.056290   0.008366  -0.004736  -0.000072
    17  H    0.013695   0.000247   0.008889   0.000646   0.000608  -0.006036
    18  H    0.007948   0.000009  -0.003966   0.001468  -0.001068  -0.001820
    19  H    0.017429   0.010011   0.024055  -0.000565  -0.000538  -0.007795
    20  H   -0.000323  -0.003454  -0.010872  -0.001151   0.000833  -0.001302
    21  H    0.431449   0.000565  -0.001111   0.000188  -0.000038  -0.005860
    22  H    0.425183  -0.000859  -0.001112  -0.000183   0.000096  -0.001749
    23  H    0.394055  -0.009816   0.001178   0.000517  -0.000017   0.005249
    24  H    0.009932   0.238047  -0.026064   0.028886  -0.004157  -0.000065
    25  H   -0.000013  -0.001201   0.321845   0.030473  -0.025874   0.000000
    26  H   -0.000154  -0.001178  -0.105162   0.446435   0.002663   0.000000
    27  H    0.000712  -0.005175  -0.091883   0.439498  -0.004808   0.000000
    28  H   -0.000094   0.000310  -0.106834   0.424620  -0.000377   0.000000
    29  H    0.000010  -0.000064  -0.076355   0.002995   0.434789   0.000000
    30  H    0.000018   0.000158  -0.090763   0.001210   0.441765   0.000000
    31  H   -0.000021   0.000051  -0.138893   0.004132   0.457883   0.000000
             13         14         15         16         17         18
     1  C    0.043238   0.029424   0.039187   0.038366   0.008137  -0.095042
     2  C    0.263540   0.034161   0.006399  -0.004834  -0.004609  -0.012789
     3  C    0.040115   0.259536   0.456348   0.044441  -0.032031  -0.067171
     4  C    0.016314  -0.027154  -0.084632   0.243576   0.009620   0.029886
     5  C   -0.023324   0.044678  -0.075465  -0.048940   0.363121   0.424673
     6  C    0.019019   0.003109  -0.052971  -0.077549  -0.047465   0.039294
     7  C    0.001419   0.001742   0.002024   0.000722   0.013695   0.007948
     8  O   -0.061424  -0.001121   0.004336   0.012220   0.000247   0.000009
     9  C   -0.043338   0.019752   0.004804   0.056290   0.008889  -0.003966
    10  C    0.018470  -0.021254   0.006307   0.008366   0.000646   0.001468
    11  C   -0.002352  -0.009667   0.004814  -0.004736   0.000608  -0.001068
    12  H   -0.000152  -0.000116  -0.000071  -0.000072  -0.006036  -0.001820
    13  H    0.582243  -0.000126  -0.000106  -0.004198  -0.000050   0.000013
    14  H   -0.000126   0.544318  -0.029828  -0.004529  -0.004175  -0.002930
    15  H   -0.000106  -0.029828   0.555717   0.004953   0.004499  -0.003301
    16  H   -0.004198  -0.004529   0.004953   0.580219   0.002920   0.000065
    17  H   -0.000050  -0.004175   0.004499   0.002920   0.543605  -0.027454
    18  H    0.000013  -0.002930  -0.003301   0.000065  -0.027454   0.551312
    19  H   -0.003865  -0.000015   0.000053   0.001183   0.002310  -0.000030
    20  H   -0.003763   0.000011  -0.000004   0.000099  -0.000045  -0.000126
    21  H    0.000005  -0.000013   0.000059  -0.000001   0.000018   0.002481
    22  H   -0.000022   0.000003  -0.000032   0.000003  -0.000126   0.000085
    23  H   -0.000059  -0.000074  -0.000200  -0.000017  -0.000028  -0.000331
    24  H    0.007803  -0.000078  -0.001265  -0.000241  -0.000016   0.000057
    25  H    0.004772   0.000003  -0.000027  -0.002107  -0.000001   0.000002
    26  H   -0.000001  -0.000037  -0.001052  -0.000037  -0.000002   0.000004
    27  H    0.000019   0.000181  -0.000242  -0.000100  -0.000001   0.000000
    28  H   -0.000005  -0.000010   0.000052  -0.000095   0.000000   0.000000
    29  H    0.000003   0.000678   0.000062  -0.000489   0.000011   0.000005
    30  H    0.000036  -0.000045   0.000008   0.004144   0.000003   0.000000
    31  H   -0.000006  -0.000069  -0.000004   0.000225   0.000000   0.000000
             19         20         21         22         23         24
     1  C    0.066944  -0.107333  -0.094051  -0.095387  -0.058448   0.053239
     2  C   -0.026887  -0.124654  -0.016265  -0.005557   0.024988   0.016752
     3  C    0.020891  -0.020439   0.007266  -0.017613   0.014218   0.018941
     4  C    0.000450   0.063410   0.001647   0.005956  -0.007240  -0.007859
     5  C   -0.072288   0.044060  -0.003065   0.030924  -0.005563  -0.031522
     6  C    0.282896   0.481206   0.035570   0.014270  -0.018582  -0.049244
     7  C    0.017429  -0.000323   0.431449   0.425183   0.394055   0.009932
     8  O    0.010011  -0.003454   0.000565  -0.000859  -0.009816   0.238047
     9  C    0.024055  -0.010872  -0.001111  -0.001112   0.001178  -0.026064
    10  C   -0.000565  -0.001151   0.000188  -0.000183   0.000517   0.028886
    11  C   -0.000538   0.000833  -0.000038   0.000096  -0.000017  -0.004157
    12  H   -0.007795  -0.001302  -0.005860  -0.001749   0.005249  -0.000065
    13  H   -0.003865  -0.003763   0.000005  -0.000022  -0.000059   0.007803
    14  H   -0.000015   0.000011  -0.000013   0.000003  -0.000074  -0.000078
    15  H    0.000053  -0.000004   0.000059  -0.000032  -0.000200  -0.001265
    16  H    0.001183   0.000099  -0.000001   0.000003  -0.000017  -0.000241
    17  H    0.002310  -0.000045   0.000018  -0.000126  -0.000028  -0.000016
    18  H   -0.000030  -0.000126   0.002481   0.000085  -0.000331   0.000057
    19  H    0.547029  -0.025265  -0.000124   0.000054  -0.000146  -0.000172
    20  H   -0.025265   0.535047   0.000074   0.003310   0.000017  -0.000392
    21  H   -0.000124   0.000074   0.522765  -0.024500  -0.028645   0.000040
    22  H    0.000054   0.003310  -0.024500   0.521400  -0.028059  -0.000539
    23  H   -0.000146   0.000017  -0.028645  -0.028059   0.577157   0.005996
    24  H   -0.000172  -0.000392   0.000040  -0.000539   0.005996   0.397073
    25  H    0.000005  -0.000012   0.000000   0.000000   0.000000   0.000226
    26  H    0.000000   0.000000   0.000000   0.000000   0.000002   0.000058
    27  H   -0.000001   0.000005   0.000000   0.000000   0.000003  -0.000722
    28  H    0.000000   0.000000   0.000000   0.000000   0.000000  -0.000005
    29  H    0.000001   0.000000   0.000000   0.000000   0.000000   0.000002
    30  H    0.000001   0.000000   0.000000   0.000000   0.000000   0.000000
    31  H    0.000000   0.000000   0.000000   0.000000   0.000000   0.000000
             25         26         27         28         29         30
     1  C    0.001863  -0.000426  -0.002426  -0.000121   0.001197  -0.000396
     2  C   -0.019189  -0.005196  -0.003104   0.009365   0.002396  -0.008563
     3  C    0.003779   0.001000  -0.024794  -0.005754  -0.002137   0.022838
     4  C   -0.041421   0.008844   0.045678   0.034390  -0.010658  -0.003909
     5  C   -0.006661  -0.001484   0.004509   0.000891  -0.002830  -0.002571
     6  C    0.009088   0.002019   0.006227   0.000236  -0.000905  -0.001737
     7  C   -0.000013  -0.000154   0.000712  -0.000094   0.000010   0.000018
     8  O   -0.001201  -0.001178  -0.005175   0.000310  -0.000064   0.000158
     9  C    0.321845  -0.105162  -0.091883  -0.106834  -0.076355  -0.090763
    10  C    0.030473   0.446435   0.439498   0.424620   0.002995   0.001210
    11  C   -0.025874   0.002663  -0.004808  -0.000377   0.434789   0.441765
    12  H    0.000000   0.000000   0.000000   0.000000   0.000000   0.000000
    13  H    0.004772  -0.000001   0.000019  -0.000005   0.000003   0.000036
    14  H    0.000003  -0.000037   0.000181  -0.000010   0.000678  -0.000045
    15  H   -0.000027  -0.001052  -0.000242   0.000052   0.000062   0.000008
    16  H   -0.002107  -0.000037  -0.000100  -0.000095  -0.000489   0.004144
    17  H   -0.000001  -0.000002  -0.000001   0.000000   0.000011   0.000003
    18  H    0.000002   0.000004   0.000000   0.000000   0.000005   0.000000
    19  H    0.000005   0.000000  -0.000001   0.000000   0.000001   0.000001
    20  H   -0.000012   0.000000   0.000005   0.000000   0.000000   0.000000
    21  H    0.000000   0.000000   0.000000   0.000000   0.000000   0.000000
    22  H    0.000000   0.000000   0.000000   0.000000   0.000000   0.000000
    23  H    0.000000   0.000002   0.000003   0.000000   0.000000   0.000000
    24  H    0.000226   0.000058  -0.000722  -0.000005   0.000002   0.000000
    25  H    0.579409   0.004840  -0.003197  -0.003972   0.005020  -0.003661
    26  H    0.004840   0.541198  -0.027118  -0.028110   0.003168   0.000004
    27  H   -0.003197  -0.027118   0.503305  -0.024039   0.000008  -0.000141
    28  H   -0.003972  -0.028110  -0.024039   0.537833  -0.000134   0.000073
    29  H    0.005020   0.003168   0.000008  -0.000134   0.540135  -0.028700
    30  H   -0.003661   0.000004  -0.000141   0.000073  -0.028700   0.536027
    31  H   -0.003751  -0.000173   0.000055   0.002774  -0.028176  -0.025087
             31
     1  C   -0.000183
     2  C   -0.004816
     3  C    0.000058
     4  C    0.039892
     5  C    0.000795
     6  C    0.000124
     7  C   -0.000021
     8  O    0.000051
     9  C   -0.138893
    10  C    0.004132
    11  C    0.457883
    12  H    0.000000
    13  H   -0.000006
    14  H   -0.000069
    15  H   -0.000004
    16  H    0.000225
    17  H    0.000000
    18  H    0.000000
    19  H    0.000000
    20  H    0.000000
    21  H    0.000000
    22  H    0.000000
    23  H    0.000000
    24  H    0.000000
    25  H   -0.003751
    26  H   -0.000173
    27  H    0.000055
    28  H    0.002774
    29  H   -0.028176
    30  H   -0.025087
    31  H    0.531162
 Mulliken atomic charges:
              1
     1  C    0.132693
     2  C    0.069788
     3  C   -0.303024
     4  C   -0.238308
     5  C   -0.447942
     6  C   -0.481324
     7  C   -0.655679
     8  O   -0.469739
     9  C    0.307253
    10  C   -0.680949
    11  C   -0.631462
    12  H    0.157038
    13  H    0.145783
    14  H    0.163644
    15  H    0.159577
    16  H    0.150152
    17  H    0.163710
    18  H    0.158724
    19  H    0.164378
    20  H    0.171061
    21  H    0.171544
    22  H    0.174453
    23  H    0.133844
    24  H    0.345287
    25  H    0.149762
    26  H    0.159893
    27  H    0.187552
    28  H    0.159005
    29  H    0.159969
    30  H    0.159290
    31  H    0.164028
 Sum of Mulliken atomic charges =   0.00000
 Mulliken charges with hydrogens summed into heavy atoms:
              1
     1  C    0.289731
     2  C    0.215570
     3  C    0.020197
     4  C   -0.088156
     5  C   -0.125508
     6  C   -0.145885
     7  C   -0.175839
     8  O   -0.124451
     9  C    0.457014
    10  C   -0.174498
    11  C   -0.148175
 Sum of Mulliken charges with hydrogens summed into heavy atoms =   0.00000
 Electronic spatial extent (au):  <R**2>=           2038.7672
 Charge=              0.0000 electrons
 Dipole moment (field-independent basis, Debye):
    X=              0.8234    Y=             -2.0271    Z=             -0.0445  Tot=              2.1884
 Quadrupole moment (field-independent basis, Debye-Ang):
   XX=            -70.5344   YY=            -78.0789   ZZ=            -69.5447
   XY=             -0.4903   XZ=              1.0989   YZ=              0.2908
 Traceless Quadrupole moment (field-independent basis, Debye-Ang):
   XX=              2.1849   YY=             -5.3596   ZZ=              3.1746
   XY=             -0.4903   XZ=              1.0989   YZ=              0.2908
 Octapole moment (field-independent basis, Debye-Ang**2):
  XXX=              8.3275  YYY=            -10.1778  ZZZ=             -2.5199  XYY=              1.5552
  XXY=              4.3022  XXZ=             -0.7947  XZZ=              3.1781  YZZ=              4.3302
  YYZ=              0.7221  XYZ=              1.7653
 Hexadecapole moment (field-independent basis, Debye-Ang**3):
 XXXX=          -1804.6486 YYYY=           -637.2650 ZZZZ=           -413.0388 XXXY=            -13.6736
 XXXZ=              0.6408 YYYX=             -2.2316 YYYZ=             -0.3014 ZZZX=              5.3170
 ZZZY=              1.3706 XXYY=           -402.8731 XXZZ=           -378.3086 YYZZ=           -158.3779
 XXYZ=             -5.0444 YYXZ=              2.3288 ZZXY=              1.1459
 N-N= 6.991672123083D+02 E-N=-2.483553715779D+03  KE= 4.636913361253D+02
 1\1\GINC-COMPUTE-10-6\SP\RmPW1PW91\6-31+G(d,p)\C10H20O1\ASAROTTI.IQUIR
 \19-Sep-2024\0\\# mPW1PW91/6-31+G** nmr scrf=(pcm,solvent=benzene)\\co
 mment\\0,1\C,0,-2.299215,0.541271,-0.216838\C,0,-0.240214,-0.918345,-0
 .87682\C,0,0.060717,1.101458,0.633135\C,0,0.698618,0.247757,-0.481854\
 C,0,-1.309768,1.65206,0.200382\C,0,-1.637667,-0.393424,-1.258395\C,0,-
 2.897889,-0.187998,1.00133\O,0,-0.311786,-1.968189,0.097508\C,0,2.1681
 53,-0.186907,-0.217899\C,0,2.414879,-0.828164,1.158153\C,0,3.140895,0.
 984484,-0.440368\H,0,-3.146151,1.024311,-0.724256\H,0,0.189345,-1.4179
 57,-1.753726\H,0,0.721946,1.935525,0.897309\H,0,-0.045794,0.509024,1.5
 52678\H,0,0.729517,0.88728,-1.379503\H,0,-1.158189,2.329882,-0.65195\H
 ,0,-1.746746,2.258403,1.005011\H,0,-1.535297,0.166208,-2.199318\H,0,-2
 .287585,-1.251391,-1.470583\H,0,-3.547287,0.489606,1.568443\H,0,-3.498
 76,-1.051441,0.694826\H,0,-2.14004,-0.547895,1.708664\H,0,-0.689573,-1
 .598883,0.909094\H,0,2.401801,-0.949226,-0.976756\H,0,2.243028,-0.1132
 79,1.972828\H,0,1.765872,-1.69319,1.310274\H,0,3.456424,-1.162511,1.23
 7184\H,0,2.974569,1.791547,0.284371\H,0,3.036039,1.411932,-1.445146\H,
 0,4.180111,0.65442,-0.32445\\Version=AM64L-G09RevC.01\State=1-A\HF=-46
 8.2765219\RMSD=9.227e-09\Dipole=-0.3239653,0.7975099,-0.0175148\Quadru
 pole=1.6244489,-3.9847063,2.3602574,-0.3645108,-0.8170027,-0.2161824\P
 G=C01 [X(C10H20O1)]\\@


 THE MORE PROGRESS PHYSICAL SCIENCES MAKE, THE MORE THEY TEND TO ENTER
 THE DOMAIN OF MATHEMATICS, WHICH IS A KIND OF CENTRE TO WHICH THEY ALL
 CONVERGE.  WE MAY EVEN JUDGE THE DEGREE OF PERFECTION TO WHICH A 
 SCIENCE HAS ARRIVED BY THE FACILITY WITH WHICH IT MAY BE SUBMITTED
 TO CALCULATION.

                               -- ADOLPHE QUETELET, 1796-1874
 Job cpu time:  0 days  0 hours 13 minutes 27.1 seconds.
 File lengths (MBytes):  RWF=    120 Int=      0 D2E=      0 Chk=      7 Scr=      1
 Normal termination of Gaussian 09 at Thu Sep 19 10:33:40 2024.
