 Entering Gaussian System, Link 0=g09
 Input=/home/asarotti.iquir/SCF2/04_Mentol01_OptB_NMR_benzene.gjc
 Output=/home/asarotti.iquir/SCF2/04_Mentol01_OptB_NMR_benzene.log
 Initial command:
 /opt/ohpc/pub/apps/software/Gaussian/09/AMD64.SSE4a-enabled/g09/l1.exe /local/asarotti.iquir/Gau-2485340.inp -scrdir=/local/asarotti.iquir/
 Entering Link 1 = /opt/ohpc/pub/apps/software/Gaussian/09/AMD64.SSE4a-enabled/g09/l1.exe PID=   2485341.
  
 Copyright (c) 1988,1990,1992,1993,1995,1998,2003,2009,2011,
            Gaussian, Inc.  All Rights Reserved.
  
 This is part of the Gaussian(R) 09 program.  It is based on
 the Gaussian(R) 03 system (copyright 2003, Gaussian, Inc.),
 the Gaussian(R) 98 system (copyright 1998, Gaussian, Inc.),
 the Gaussian(R) 94 system (copyright 1995, Gaussian, Inc.),
 the Gaussian 92(TM) system (copyright 1992, Gaussian, Inc.),
 the Gaussian 90(TM) system (copyright 1990, Gaussian, Inc.),
 the Gaussian 88(TM) system (copyright 1988, Gaussian, Inc.),
 the Gaussian 86(TM) system (copyright 1986, Carnegie Mellon
 University), and the Gaussian 82(TM) system (copyright 1983,
 Carnegie Mellon University). Gaussian is a federally registered
 trademark of Gaussian, Inc.
  
 This software contains proprietary and confidential information,
 including trade secrets, belonging to Gaussian, Inc.
  
 This software is provided under written license and may be
 used, copied, transmitted, or stored only in accord with that
 written license.
  
 The following legend is applicable only to US Government
 contracts under FAR:
  
                    RESTRICTED RIGHTS LEGEND
  
 Use, reproduction and disclosure by the US Government is
 subject to restrictions as set forth in subparagraphs (a)
 and (c) of the Commercial Computer Software - Restricted
 Rights clause in FAR 52.227-19.
  
 Gaussian, Inc.
 340 Quinnipiac St., Bldg. 40, Wallingford CT 06492
  
  
 ---------------------------------------------------------------
 Warning -- This program may not be used in any manner that
 competes with the business of Gaussian, Inc. or will provide
 assistance to any competitor of Gaussian, Inc.  The licensee
 of this program is prohibited from giving any competitor of
 Gaussian, Inc. access to this program.  By using this program,
 the user acknowledges that Gaussian, Inc. is engaged in the
 business of creating and licensing software in the field of
 computational chemistry and represents and warrants to the
 licensee that it is not a competitor of Gaussian, Inc. and that
 it will not use this program in any manner prohibited above.
 ---------------------------------------------------------------
  

 Cite this work as:
 Gaussian 09, Revision C.01,
 M. J. Frisch, G. W. Trucks, H. B. Schlegel, G. E. Scuseria, 
 M. A. Robb, J. R. Cheeseman, G. Scalmani, V. Barone, B. Mennucci, 
 G. A. Petersson, H. Nakatsuji, M. Caricato, X. Li, H. P. Hratchian, 
 A. F. Izmaylov, J. Bloino, G. Zheng, J. L. Sonnenberg, M. Hada, 
 M. Ehara, K. Toyota, R. Fukuda, J. Hasegawa, M. Ishida, T. Nakajima, 
 Y. Honda, O. Kitao, H. Nakai, T. Vreven, J. A. Montgomery, Jr., 
 J. E. Peralta, F. Ogliaro, M. Bearpark, J. J. Heyd, E. Brothers, 
 K. N. Kudin, V. N. Staroverov, T. Keith, R. Kobayashi, J. Normand, 
 K. Raghavachari, A. Rendell, J. C. Burant, S. S. Iyengar, J. Tomasi, 
 M. Cossi, N. Rega, J. M. Millam, M. Klene, J. E. Knox, J. B. Cross, 
 V. Bakken, C. Adamo, J. Jaramillo, R. Gomperts, R. E. Stratmann, 
 O. Yazyev, A. J. Austin, R. Cammi, C. Pomelli, J. W. Ochterski, 
 R. L. Martin, K. Morokuma, V. G. Zakrzewski, G. A. Voth, 
 P. Salvador, J. J. Dannenberg, S. Dapprich, A. D. Daniels, 
 O. Farkas, J. B. Foresman, J. V. Ortiz, J. Cioslowski, 
 and D. J. Fox, Gaussian, Inc., Wallingford CT, 2010.
 
 ******************************************
 Gaussian 09:  AM64L-G09RevC.01 23-Sep-2011
                19-Sep-2024 
 ******************************************
 %nprocshared=4
 Will use up to    4 processors via shared memory.
 %mem=100mw
 --------------------------------------------------
 # mPW1PW91/6-31+G** nmr scrf=(pcm,solvent=benzene)
 --------------------------------------------------
 1/38=1/1;
 2/12=2,17=6,18=5,40=1/2;
 3/5=1,6=6,7=111,11=2,16=1,25=1,30=1,70=2201,72=12,74=-7/1,2,8,3;
 4//1;
 5/5=2,38=5,53=12/2;
 8/6=1,10=90,11=11/1;
 10/13=100,45=16/2;
 6/7=2,8=2,9=2,10=2,28=1/1;
 99/9=1/99;
 -------
 comment
 -------
 Charge =  0 Multiplicity = 1
 Symbolic Z-Matrix:
 6                     2.35361   0.28948   0.43423 
 6                     0.12462  -1.05447   0.41156 
 6                     0.14388   1.36574  -0.31945 
 6                    -0.69219   0.25232   0.34745 
 6                     1.50093   1.57216   0.37237 
 6                     1.51094  -0.849     1.04696 
 6                     2.97521  -0.07453  -0.92483 
 8                     0.20758  -1.57152  -0.92516 
 6                    -2.08229   0.06375  -0.32038 
 6                    -2.95417   1.32486  -0.19057 
 6                    -2.8496   -1.14803   0.23577 
 1                     3.18805   0.47894   1.1251 
 1                    -0.41903  -1.77642   1.04026 
 1                    -0.40649   2.31243  -0.29901 
 1                     0.29137   1.11388  -1.37724 
 1                    -0.86691   0.54496   1.39695 
 1                     1.32103   1.92643   1.3985 
 1                     2.0618    2.36892  -0.13426 
 1                     1.35159  -0.63748   2.1144 
 1                     2.06655  -1.79908   1.00928 
 1                     3.60832   0.74322  -1.29064 
 1                     3.60957  -0.96593  -0.83431 
 1                     2.21318  -0.28545  -1.67935 
 1                     0.77816  -2.35526  -0.90061 
 1                    -1.906    -0.12175  -1.38817 
 1                    -3.13229   1.57456   0.86428 
 1                    -2.50439   2.1999   -0.66955 
 1                    -3.9321    1.16423  -0.6595 
 1                    -2.97542  -1.07793   1.325 
 1                    -2.34165  -2.08947   0.00762 
 1                    -3.85171  -1.20016  -0.2061 
 
                          Input orientation:                          
 ---------------------------------------------------------------------
 Center     Atomic      Atomic             Coordinates (Angstroms)
 Number     Number       Type             X           Y           Z
 ---------------------------------------------------------------------
      1          6           0        2.353613    0.289475    0.434225
      2          6           0        0.124620   -1.054470    0.411555
      3          6           0        0.143881    1.365735   -0.319450
      4          6           0       -0.692185    0.252318    0.347448
      5          6           0        1.500928    1.572161    0.372372
      6          6           0        1.510937   -0.848997    1.046959
      7          6           0        2.975206   -0.074531   -0.924832
      8          8           0        0.207582   -1.571520   -0.925157
      9          6           0       -2.082286    0.063750   -0.320378
     10          6           0       -2.954168    1.324859   -0.190567
     11          6           0       -2.849596   -1.148031    0.235767
     12          1           0        3.188053    0.478937    1.125103
     13          1           0       -0.419034   -1.776417    1.040264
     14          1           0       -0.406493    2.312426   -0.299009
     15          1           0        0.291374    1.113879   -1.377236
     16          1           0       -0.866906    0.544955    1.396948
     17          1           0        1.321025    1.926430    1.398501
     18          1           0        2.061797    2.368919   -0.134263
     19          1           0        1.351592   -0.637478    2.114399
     20          1           0        2.066549   -1.799080    1.009280
     21          1           0        3.608317    0.743217   -1.290640
     22          1           0        3.609573   -0.965927   -0.834307
     23          1           0        2.213175   -0.285453   -1.679352
     24          1           0        0.778158   -2.355255   -0.900605
     25          1           0       -1.905995   -0.121754   -1.388173
     26          1           0       -3.132288    1.574562    0.864279
     27          1           0       -2.504390    2.199901   -0.669547
     28          1           0       -3.932095    1.164227   -0.659495
     29          1           0       -2.975420   -1.077925    1.325000
     30          1           0       -2.341651   -2.089466    0.007615
     31          1           0       -3.851705   -1.200160   -0.206096
 ---------------------------------------------------------------------
                    Distance matrix (angstroms):
                    1          2          3          4          5
     1  C    0.000000
     2  C    2.602905   0.000000
     3  C    2.570851   2.528267   0.000000
     4  C    3.047260   1.542393   1.543845   0.000000
     5  C    1.541487   2.965628   1.537142   2.559756   0.000000
     6  C    1.543264   1.538776   2.939550   2.560460   2.513399
     7  C    1.538153   3.297279   3.233768   3.895547   2.562777
     8  O    3.149075   1.435626   2.999734   2.399060   3.638551
     9  C    4.505283   2.580034   2.578950   1.553683   3.949004
    10  C    5.443797   3.937346   3.100998   2.560541   4.497326
    11  C    5.401777   2.980875   3.948188   2.574465   5.132754
    12  H    1.099772   3.499301   3.484269   3.963881   2.146656
    13  H    3.510380   1.100928   3.469700   2.161104   3.917309
    14  H    3.499735   3.481806   1.095241   2.177974   2.153369
    15  H    2.865984   2.815904   1.097313   2.164304   2.175815
    16  H    3.371031   2.124214   2.154389   1.103456   2.776967
    17  H    2.162334   3.360240   2.156711   2.821414   1.100369
    18  H    2.175413   3.971167   2.172343   3.506631   1.098215
    19  H    2.164780   2.139865   3.375655   2.844447   2.817705
    20  H    2.185213   2.163980   3.934238   3.500981   3.477189
    21  H    2.180670   4.273791   3.651446   4.628027   2.809599
    22  H    2.182348   3.702014   4.208651   4.624477   3.513453
    23  H    2.194874   3.053742   2.976194   3.583048   2.857901
    24  H    3.355358   1.959826   3.819138   3.243298   4.191356
    25  H    4.651291   2.869212   2.748961   2.150731   4.192373
    26  H    5.650797   4.210014   3.489714   2.823038   4.659256
    27  H    5.335563   4.321042   2.798525   2.848060   4.185956
    28  H    6.439840   4.746230   4.095097   3.513194   5.545169
    29  H    5.573316   3.231900   4.290190   2.817502   5.288492
    30  H    5.280801   2.704973   4.268870   2.884472   5.320336
    31  H    6.413657   4.026646   4.749881   3.521175   6.055664
                    6          7          8          9         10
     6  C    0.000000
     7  C    2.575236   0.000000
     8  O    2.471845   3.146541   0.000000
     9  C    3.951452   5.095362   2.878083   0.000000
    10  C    5.118035   6.136360   4.350321   1.538644   0.000000
    11  C    4.445414   6.035537   3.297488   1.538335   2.511550
    12  H    2.140615   2.133978   4.158263   5.480718   6.338253
    13  H    2.141247   4.275381   2.073044   2.829129   4.190437
    14  H    3.934814   4.186300   3.981732   2.804511   2.734538
    15  H    3.349170   2.969839   2.724475   2.802496   3.462115
    16  H    2.778441   4.531694   3.320567   2.158220   2.735894
    17  H    2.804041   3.483968   4.344513   4.243424   4.600467
    18  H    3.471846   2.725759   4.426137   4.745721   5.123781
    19  H    1.099800   3.491412   3.379363   4.267479   5.263383
    20  H    1.101264   2.746000   2.692506   4.738244   6.033757
    21  H    3.521153   1.096976   4.129962   5.812577   6.679422
    22  H    2.820835   1.097817   3.456666   5.807032   6.981747
    23  H    2.871148   1.092923   2.499036   4.518820   5.613468
    24  H    2.568810   3.166908   0.969742   3.790830   5.289390
    25  H    4.258424   4.903370   2.604499   1.098033   2.150725
    26  H    5.240854   6.574337   4.924900   2.188257   1.098535
    27  H    5.325882   5.938365   4.652284   2.205274   1.094267
    28  H    6.049104   7.022516   4.969086   2.178955   1.096375
    29  H    4.500790   6.440380   3.929166   2.192802   2.840909
    30  H    4.178688   5.761804   2.763498   2.193442   3.474488
    31  H    5.518278   6.956316   4.139175   2.177469   2.679839
                   11         12         13         14         15
    11  C    0.000000
    12  H    6.315944   0.000000
    13  H    2.636231   4.254985   0.000000
    14  H    4.269602   4.279081   4.302609   0.000000
    15  H    4.193293   3.880155   3.834423   1.756732   0.000000
    16  H    2.854050   4.064597   2.390937   2.492429   3.059638
    17  H    5.310211   2.378188   4.106972   2.452519   3.070038
    18  H    6.052077   2.535052   4.971705   2.474427   2.500901
    19  H    4.630324   2.365941   2.363486   4.197301   4.047571
    20  H    5.019031   2.541761   2.485879   4.973132   4.163176
    21  H    6.900100   2.466228   5.291618   4.423172   3.338712
    22  H    6.549739   2.470749   4.516701   5.211807   3.953582
    23  H    5.481183   3.065884   4.067900   3.939160   2.396398
    24  H    3.988650   4.236004   2.352721   4.853098   3.535396
    25  H    2.140282   5.711980   3.293367   3.059414   2.520980
    26  H    2.808461   6.419901   4.315296   3.054119   4.118019
    27  H    3.485313   6.211795   4.804505   2.133338   3.081650
    28  H    2.705519   7.372308   4.886529   3.725343   4.284318
    29  H    1.098715   6.360203   2.665347   4.553161   4.772633
    30  H    1.093783   6.198637   2.204727   4.818247   4.371733
    31  H    1.096441   7.358645   3.697123   4.921014   4.887888
                   16         17         18         19         20
    16  H    0.000000
    17  H    2.587570   0.000000
    18  H    3.774752   1.758950   0.000000
    19  H    2.614310   2.662155   3.820902   0.000000
    20  H    3.774910   3.819257   4.322028   1.755497   0.000000
    21  H    5.223989   3.723329   2.524250   4.312008   3.758983
    22  H    5.224952   4.311451   3.742575   3.728435   2.544382
    23  H    4.431715   3.893782   3.075046   3.906251   3.088901
    24  H    4.049223   4.890135   4.955081   3.517077   2.370009
    25  H    3.046491   4.730145   4.849651   4.811014   4.933793
    26  H    2.544756   4.499022   5.348515   5.153746   6.199225
    27  H    3.112973   4.357225   4.600561   5.538021   6.301095
    28  H    3.742705   5.693116   6.136277   6.233617   6.895631
    29  H    2.661719   5.243185   6.275646   4.420427   5.103057
    30  H    3.323446   5.610453   6.267989   4.492978   4.529888
    31  H    3.811063   6.253594   6.907459   5.724998   6.071373
                   21         22         23         24         25
    21  H    0.000000
    22  H    1.769015   0.000000
    23  H    1.776423   1.768353   0.000000
    24  H    4.214553   3.154606   2.636248   0.000000
    25  H    5.582591   5.607217   4.132692   3.525752   0.000000
    26  H    7.125347   7.402160   6.205134   5.818064   3.074870
    27  H    6.314497   6.886956   5.426980   5.619427   2.502915
    28  H    7.578483   7.838678   6.395782   5.884842   2.507947
    29  H    7.314624   6.930893   6.047781   4.546893   3.069078
    30  H    6.716523   6.114592   5.181386   3.260171   2.451512
    31  H    7.784913   7.491341   6.307927   4.822055   2.519137
                   26         27         28         29         30
    26  H    0.000000
    27  H    1.771419   0.000000
    28  H    1.769167   1.763821   0.000000
    29  H    2.696768   3.865777   3.143357   0.000000
    30  H    3.845007   4.345538   3.682535   1.777746   0.000000
    31  H    3.059795   3.686524   2.408809   1.768353   1.765446
                   31
    31  H    0.000000
 Stoichiometry    C10H20O
 Framework group  C1[X(C10H20O)]
 Deg. of freedom    87
 Full point group                 C1      NOp   1
 Largest Abelian subgroup         C1      NOp   1
 Largest concise Abelian subgroup C1      NOp   1
                         Standard orientation:                         
 ---------------------------------------------------------------------
 Center     Atomic      Atomic             Coordinates (Angstroms)
 Number     Number       Type             X           Y           Z
 ---------------------------------------------------------------------
      1          6           0        2.353613    0.289475    0.434225
      2          6           0        0.124620   -1.054470    0.411555
      3          6           0        0.143881    1.365735   -0.319450
      4          6           0       -0.692185    0.252318    0.347448
      5          6           0        1.500928    1.572161    0.372372
      6          6           0        1.510937   -0.848997    1.046959
      7          6           0        2.975206   -0.074531   -0.924832
      8          8           0        0.207582   -1.571520   -0.925157
      9          6           0       -2.082286    0.063750   -0.320378
     10          6           0       -2.954168    1.324859   -0.190567
     11          6           0       -2.849596   -1.148031    0.235767
     12          1           0        3.188053    0.478937    1.125103
     13          1           0       -0.419034   -1.776417    1.040264
     14          1           0       -0.406493    2.312426   -0.299009
     15          1           0        0.291374    1.113879   -1.377236
     16          1           0       -0.866906    0.544955    1.396948
     17          1           0        1.321025    1.926430    1.398501
     18          1           0        2.061797    2.368919   -0.134263
     19          1           0        1.351592   -0.637478    2.114399
     20          1           0        2.066549   -1.799080    1.009280
     21          1           0        3.608317    0.743217   -1.290640
     22          1           0        3.609573   -0.965927   -0.834307
     23          1           0        2.213175   -0.285453   -1.679352
     24          1           0        0.778158   -2.355255   -0.900605
     25          1           0       -1.905995   -0.121754   -1.388173
     26          1           0       -3.132288    1.574562    0.864279
     27          1           0       -2.504390    2.199901   -0.669547
     28          1           0       -3.932095    1.164227   -0.659495
     29          1           0       -2.975420   -1.077925    1.325000
     30          1           0       -2.341651   -2.089466    0.007615
     31          1           0       -3.851705   -1.200160   -0.206096
 ---------------------------------------------------------------------
 Rotational constants (GHZ):      1.8581151      0.7413040      0.6261105
 Standard basis: 6-31+G(d,p) (6D, 7F)
 There are   309 symmetry adapted basis functions of A   symmetry.
 Integral buffers will be    131072 words long.
 Raffenetti 2 integral format.
 Two-electron integral symmetry is turned on.
   309 basis functions,   492 primitive gaussians,   309 cartesian basis functions
    44 alpha electrons       44 beta electrons
       nuclear repulsion energy       698.9179660116 Hartrees.
 NAtoms=   31 NActive=   31 NUniq=   31 SFac= 1.00D+00 NAtFMM=   60 NAOKFM=F Big=F
 ------------------------------------------------------------------------------
 Polarizable Continuum Model (PCM)
 =================================
 Model                : PCM.
 Atomic radii         : UFF (Universal Force Field).
 Polarization charges : Total charges.
 Charge compensation  : None.
 Solution method      : Matrix inversion.
 Cavity type          : Scaled VdW (van der Waals Surface) (Alpha=1.100).
 Cavity algorithm     : GePol (No added spheres)
                        Default sphere list used, NSphG=   31.
                        Lebedev-Laikov grids with approx.  5.0 points / Ang**2.
                        Smoothing algorithm: Karplus/York (Gamma=1.0000).
                        Polarization charges: spherical gaussians, with
                                              point-specific exponents (IZeta= 3).
                        Self-potential: point-specific (ISelfS= 7).
                        Self-field    : sphere-specific E.n sum rule (ISelfD= 2).
 Solvent              : Benzene, Eps=   2.270600 Eps(inf)=   2.253301
 ------------------------------------------------------------------------------
 One-electron integrals computed using PRISM.
 NBasis=   309 RedAO= T  NBF=   309
 NBsUse=   309 1.00D-06 NBFU=   309
 Harris functional with IExCor=  908 diagonalized for initial guess.
 ExpMin= 4.38D-02 ExpMax= 5.48D+03 ExpMxC= 8.25D+02 IAcc=2 IRadAn=         4 AccDes= 0.00D+00
 HarFok:  IExCor=  908 AccDes= 0.00D+00 IRadAn=         4 IDoV= 1
 ScaDFX=  1.000000  1.000000  1.000000  1.000000
 FoFCou: FMM=F IPFlag=           0 FMFlag=      100000 FMFlg1=           0
         NFxFlg=           0 DoJE=T BraDBF=F KetDBF=T FulRan=T
         Omega=  0.000000  0.000000  1.000000  0.000000  0.000000 ICntrl=     500 IOpCl=  0
         NMat0=    1 NMatS0=    1 NMatT0=    0 NMatD0=    1 NMtDS0=    0 NMtDT0=    0
         I1Cent=           4 NGrid=           0.
 Petite list used in FoFCou.
 Initial guess orbital symmetries:
       Occupied  (A) (A) (A) (A) (A) (A) (A) (A) (A) (A) (A) (A)
                 (A) (A) (A) (A) (A) (A) (A) (A) (A) (A) (A) (A)
                 (A) (A) (A) (A) (A) (A) (A) (A) (A) (A) (A) (A)
                 (A) (A) (A) (A) (A) (A) (A) (A)
       Virtual   (A) (A) (A) (A) (A) (A) (A) (A) (A) (A) (A) (A)
                 (A) (A) (A) (A) (A) (A) (A) (A) (A) (A) (A) (A)
                 (A) (A) (A) (A) (A) (A) (A) (A) (A) (A) (A) (A)
                 (A) (A) (A) (A) (A) (A) (A) (A) (A) (A) (A) (A)
                 (A) (A) (A) (A) (A) (A) (A) (A) (A) (A) (A) (A)
                 (A) (A) (A) (A) (A) (A) (A) (A) (A) (A) (A) (A)
                 (A) (A) (A) (A) (A) (A) (A) (A) (A) (A) (A) (A)
                 (A) (A) (A) (A) (A) (A) (A) (A) (A) (A) (A) (A)
                 (A) (A) (A) (A) (A) (A) (A) (A) (A) (A) (A) (A)
                 (A) (A) (A) (A) (A) (A) (A) (A) (A) (A) (A) (A)
                 (A) (A) (A) (A) (A) (A) (A) (A) (A) (A) (A) (A)
                 (A) (A) (A) (A) (A) (A) (A) (A) (A) (A) (A) (A)
                 (A) (A) (A) (A) (A) (A) (A) (A) (A) (A) (A) (A)
                 (A) (A) (A) (A) (A) (A) (A) (A) (A) (A) (A) (A)
                 (A) (A) (A) (A) (A) (A) (A) (A) (A) (A) (A) (A)
                 (A) (A) (A) (A) (A) (A) (A) (A) (A) (A) (A) (A)
                 (A) (A) (A) (A) (A) (A) (A) (A) (A) (A) (A) (A)
                 (A) (A) (A) (A) (A) (A) (A) (A) (A) (A) (A) (A)
                 (A) (A) (A) (A) (A) (A) (A) (A) (A) (A) (A) (A)
                 (A) (A) (A) (A) (A) (A) (A) (A) (A) (A) (A) (A)
                 (A) (A) (A) (A) (A) (A) (A) (A) (A) (A) (A) (A)
                 (A) (A) (A) (A) (A) (A) (A) (A) (A) (A) (A) (A)
                 (A)
 The electronic state of the initial guess is 1-A.
 Requested convergence on RMS density matrix=1.00D-08 within 128 cycles.
 Requested convergence on MAX density matrix=1.00D-06.
 Requested convergence on             energy=1.00D-06.
 No special actions if energy rises.
 Error on total polarization charges =  0.00927
 SCF Done:  E(RmPW1PW91) =  -468.280136870     A.U. after   12 cycles
             Convg  =    0.6923D-08             -V/T =  2.0099
 Range of M.O.s used for correlation:     1   309
 NBasis=   309 NAE=    44 NBE=    44 NFC=     0 NFV=     0
 NROrb=    309 NOA=    44 NOB=    44 NVA=   265 NVB=   265

 **** Warning!!: The largest alpha MO coefficient is  0.92464720D+02

 NEqPCM:  Using equilibrium solvation (IEInf=0, Eps=   2.2706, EpsInf=   2.2533)
          Differentiating once with respect to magnetic field using GIAOs.
          Electric field/nuclear overlap derivatives assumed to be zero.
 FoFCou: FMM=F IPFlag=           0 FMFlag=    10101102 FMFlg1=           0
         NFxFlg=    40000000 DoJE=F BraDBF=F KetDBF=T FulRan=T
         Omega=  0.000000  0.000000  1.000000  0.000000  0.000000 ICntrl=    6100 IOpCl=  0
         NMat0=    1 NMatS0=    1 NMatT0=    0 NMatD0=    1 NMtDS0=    0 NMtDT0=    0
         I1Cent=           7 NGrid=        1913.
 Symmetry not used in FoFCou.
          There are     3 degrees of freedom in the 1st order CPHF.  IDoFFX=0.
      3 vectors produced by pass  0 Test12= 3.89D-13 3.33D-08 XBig12= 3.50D+01 1.06D+00.
 AX will form     3 AO Fock derivatives at one time.
      3 vectors produced by pass  1 Test12= 3.89D-13 3.33D-08 XBig12= 7.20D-02 3.40D-02.
      3 vectors produced by pass  2 Test12= 3.89D-13 3.33D-08 XBig12= 1.31D-04 2.65D-03.
      3 vectors produced by pass  3 Test12= 3.89D-13 3.33D-08 XBig12= 7.29D-07 2.44D-04.
      3 vectors produced by pass  4 Test12= 3.89D-13 3.33D-08 XBig12= 2.15D-09 9.85D-06.
      3 vectors produced by pass  5 Test12= 3.89D-13 3.33D-08 XBig12= 4.24D-12 4.12D-07.
 Inverted reduced A of dimension    18 with in-core refinement.
 Calculating GIAO nuclear magnetic shielding tensors.
 SCF GIAO Magnetic shielding tensor (ppm):
      1  C    Isotropic =   165.7113   Anisotropy =     4.1231
   XX=   164.1727   YX=    -0.2015   ZX=    -1.4450
   XY=    -0.5787   YY=   164.5890   ZY=    -0.3988
   XZ=     1.0206   YZ=     1.4496   ZZ=   168.3722
   Eigenvalues:   163.9368   164.7370   168.4600
      2  C    Isotropic =   126.3339   Anisotropy =    51.6372
   XX=   116.7329   YX=    -1.3614   ZX=    -3.4605
   XY=    -2.6795   YY=   110.8579   ZY=    22.6524
   XZ=    -7.1048   YZ=    18.5292   ZZ=   151.4109
   Eigenvalues:   102.2338   116.0093   160.7587
      3  C    Isotropic =   173.5068   Anisotropy =    19.3684
   XX=   180.8889   YX=     7.6647   ZX=     2.1110
   XY=    10.9033   YY=   170.3833   ZY=    -3.1752
   XZ=    -2.2963   YZ=    -2.0719   ZZ=   169.2483
   Eigenvalues:   164.0121   170.0893   186.4191
      4  C    Isotropic =   146.3284   Anisotropy =    15.6467
   XX=   153.1237   YX=    -2.2283   ZX=    -0.7774
   XY=     3.0018   YY=   134.9809   ZY=    10.3667
   XZ=     6.9456   YZ=     5.8209   ZZ=   150.8805
   Eigenvalues:   131.5527   150.6729   156.7595
      5  C    Isotropic =   161.7356   Anisotropy =    12.4435
   XX=   164.9016   YX=    -5.0192   ZX=    -2.4135
   XY=    -5.3894   YY=   164.1816   ZY=     3.6535
   XZ=    -0.7294   YZ=    -1.3104   ZZ=   156.1237
   Eigenvalues:   155.8377   159.3379   170.0313
      6  C    Isotropic =   153.9187   Anisotropy =    13.0569
   XX=   161.4573   YX=     4.6587   ZX=     0.1883
   XY=     2.4407   YY=   151.5771   ZY=     4.9745
   XZ=    -1.3958   YZ=     2.3123   ZZ=   148.7218
   Eigenvalues:   145.8151   153.3178   162.6233
      7  C    Isotropic =   174.1599   Anisotropy =    32.6281
   XX=   167.0874   YX=    -0.0294   ZX=   -17.5669
   XY=    -2.1526   YY=   173.1858   ZY=    -0.6339
   XZ=   -22.1412   YZ=     0.7853   ZZ=   182.2066
   Eigenvalues:   153.3655   173.2022   195.9120
      8  O    Isotropic =   278.2961   Anisotropy =    68.8984
   XX=   277.9203   YX=   -29.3447   ZX=     3.2833
   XY=   -33.0206   YY=   300.4754   ZY=    27.4328
   XZ=    13.6544   YZ=    10.9812   ZZ=   256.4925
   Eigenvalues:   237.5989   273.0610   324.2283
      9  C    Isotropic =   163.6691   Anisotropy =    18.7693
   XX=   173.8168   YX=     8.0800   ZX=     1.6117
   XY=     3.2359   YY=   161.4208   ZY=    -2.0939
   XZ=     3.6459   YZ=    -1.2223   ZZ=   155.7696
   Eigenvalues:   154.3369   160.4884   176.1819
     10  C    Isotropic =   174.2086   Anisotropy =    32.9048
   XX=   174.8932   YX=   -16.6102   ZX=     1.0506
   XY=   -13.1877   YY=   185.2232   ZY=     1.3534
   XZ=     0.2416   YZ=     7.5602   ZZ=   162.5095
   Eigenvalues:   159.9723   166.5085   196.1451
     11  C    Isotropic =   175.2308   Anisotropy =    30.7531
   XX=   172.5088   YX=    13.2777   ZX=    -4.6076
   XY=    10.0982   YY=   185.8408   ZY=    -6.3041
   XZ=    -3.2768   YZ=   -10.8141   ZZ=   167.3427
   Eigenvalues:   163.8582   166.1014   195.7329
     12  H    Isotropic =    29.8115   Anisotropy =    10.1567
   XX=    32.9385   YX=     1.1823   ZX=     4.0458
   XY=     1.2676   YY=    26.0480   ZY=     1.4492
   XZ=     4.7408   YZ=     1.4234   ZZ=    30.4479
   Eigenvalues:    25.6189    27.2329    36.5826
     13  H    Isotropic =    27.3904   Anisotropy =     5.1699
   XX=    28.8369   YX=     1.8698   ZX=    -0.5448
   XY=     1.3699   YY=    25.9814   ZY=    -1.4544
   XZ=    -1.4492   YZ=    -3.4377   ZZ=    27.3528
   Eigenvalues:    24.0144    27.3198    30.8370
     14  H    Isotropic =    30.0822   Anisotropy =     8.8302
   XX=    33.1301   YX=    -2.0500   ZX=     1.0029
   XY=    -2.1789   YY=    33.9423   ZY=    -1.5263
   XZ=     1.4952   YZ=    -1.3175   ZZ=    23.1743
   Eigenvalues:    22.8943    31.3834    35.9690
     15  H    Isotropic =    29.8720   Anisotropy =     5.2855
   XX=    29.7103   YX=     0.4170   ZX=    -0.3081
   XY=    -0.0292   YY=    26.8036   ZY=    -1.3956
   XZ=    -0.8508   YZ=    -0.8518   ZZ=    33.1022
   Eigenvalues:    26.6064    29.6140    33.3957
     16  H    Isotropic =    30.7154   Anisotropy =     4.4684
   XX=    31.7201   YX=    -0.3816   ZX=    -1.0872
   XY=    -0.5523   YY=    28.0277   ZY=     1.3278
   XZ=    -1.1534   YZ=     1.9727   ZZ=    32.3984
   Eigenvalues:    27.4727    30.9792    33.6943
     17  H    Isotropic =    29.9852   Anisotropy =     8.7237
   XX=    28.4248   YX=    -0.2843   ZX=     1.1725
   XY=    -0.4619   YY=    30.2384   ZY=     5.2255
   XZ=     0.9623   YZ=     4.7085   ZZ=    31.2925
   Eigenvalues:    25.4384    28.7163    35.8011
     18  H    Isotropic =    29.9930   Anisotropy =     9.6174
   XX=    30.7727   YX=     3.4795   ZX=    -0.7294
   XY=     3.6306   YY=    33.6921   ZY=    -1.9276
   XZ=    -0.8581   YZ=    -1.5643   ZZ=    25.5142
   Eigenvalues:    25.1560    28.4184    36.4046
     19  H    Isotropic =    29.8611   Anisotropy =     8.2180
   XX=    28.0146   YX=     0.2283   ZX=     0.9959
   XY=     0.6347   YY=    26.6184   ZY=    -1.7673
   XZ=     0.9493   YZ=    -1.3561   ZZ=    34.9504
   Eigenvalues:    26.1359    28.1078    35.3398
     20  H    Isotropic =    30.1122   Anisotropy =     7.8327
   XX=    30.2072   YX=    -2.4328   ZX=     0.7751
   XY=    -2.2228   YY=    32.9304   ZY=    -2.4632
   XZ=     1.4977   YZ=    -3.0212   ZZ=    27.1990
   Eigenvalues:    26.0876    28.9150    35.3340
     21  H    Isotropic =    30.7653   Anisotropy =    11.1114
   XX=    32.7394   YX=     3.5981   ZX=    -4.5854
   XY=     3.1770   YY=    29.9084   ZY=    -1.5231
   XZ=    -4.8591   YZ=    -3.0192   ZZ=    29.6482
   Eigenvalues:    26.2140    27.9091    38.1730
     22  H    Isotropic =    30.7060   Anisotropy =     9.7760
   XX=    32.6935   YX=    -4.4379   ZX=    -2.2141
   XY=    -4.3014   YY=    31.5790   ZY=     0.2902
   XZ=    -2.7481   YZ=     1.6940   ZZ=    27.8456
   Eigenvalues:    26.5395    28.3552    37.2234
     23  H    Isotropic =    29.4284   Anisotropy =     4.3269
   XX=    31.2468   YX=     1.3794   ZX=    -0.5330
   XY=     1.3627   YY=    25.4512   ZY=     2.0937
   XZ=     0.6251   YZ=     1.6301   ZZ=    31.5872
   Eigenvalues:    24.6694    31.3028    32.3130
     24  H    Isotropic =    31.2899   Anisotropy =    17.2303
   XX=    29.5424   YX=    -7.5527   ZX=     0.2848
   XY=    -7.9379   YY=    37.2963   ZY=     3.0383
   XZ=    -1.0871   YZ=     4.2146   ZZ=    27.0310
   Eigenvalues:    23.8216    27.2714    42.7768
     25  H    Isotropic =    29.7346   Anisotropy =     4.9792
   XX=    29.2768   YX=    -0.7473   ZX=    -0.2240
   XY=    -0.7718   YY=    27.1952   ZY=     1.2473
   XZ=    -0.4115   YZ=     1.2221   ZZ=    32.7319
   Eigenvalues:    26.7486    29.4011    33.0541
     26  H    Isotropic =    31.1097   Anisotropy =     8.4877
   XX=    30.6005   YX=    -2.4165   ZX=    -2.8831
   XY=    -2.5797   YY=    30.4208   ZY=     3.5779
   XZ=    -2.3173   YZ=     2.7892   ZZ=    32.3079
   Eigenvalues:    27.8250    28.7360    36.7682
     27  H    Isotropic =    30.2277   Anisotropy =     8.5429
   XX=    30.5485   YX=    -1.1675   ZX=    -0.1536
   XY=     0.3175   YY=    34.4650   ZY=    -4.2300
   XZ=    -0.0688   YZ=    -3.4298   ZZ=    25.6696
   Eigenvalues:    24.2255    30.5346    35.9229
     28  H    Isotropic =    30.7401   Anisotropy =    10.5516
   XX=    35.7815   YX=    -1.3921   ZX=     3.9011
   XY=    -2.6144   YY=    28.7512   ZY=    -0.7603
   XZ=     3.6945   YZ=    -0.5444   ZZ=    27.6876
   Eigenvalues:    26.1768    28.2690    37.7745
     29  H    Isotropic =    31.0553   Anisotropy =     8.4711
   XX=    30.3986   YX=     1.3885   ZX=    -2.9972
   XY=     1.5943   YY=    28.4930   ZY=    -2.5735
   XZ=    -2.7042   YZ=    -2.0611   ZZ=    34.2745
   Eigenvalues:    27.5381    28.9252    36.7028
     30  H    Isotropic =    30.0591   Anisotropy =     8.4501
   XX=    30.3784   YX=     0.4310   ZX=    -0.7723
   XY=    -0.4451   YY=    35.6626   ZY=     0.9180
   XZ=    -0.6859   YZ=     0.2495   ZZ=    24.1361
   Eigenvalues:    24.0233    30.4614    35.6925
     31  H    Isotropic =    30.7690   Anisotropy =    10.4950
   XX=    35.7506   YX=     2.8270   ZX=     2.8421
   XY=     3.9509   YY=    29.5459   ZY=     0.2721
   XZ=     2.1603   YZ=     0.0967   ZZ=    27.0105
   Eigenvalues:    26.1396    28.4018    37.7657
 End of Minotr Frequency-dependent properties file   721 does not exist.
 End of Minotr Frequency-dependent properties file   722 does not exist.

 **********************************************************************

            Population analysis using the SCF density.

 **********************************************************************

 Orbital symmetries:
       Occupied  (A) (A) (A) (A) (A) (A) (A) (A) (A) (A) (A) (A)
                 (A) (A) (A) (A) (A) (A) (A) (A) (A) (A) (A) (A)
                 (A) (A) (A) (A) (A) (A) (A) (A) (A) (A) (A) (A)
                 (A) (A) (A) (A) (A) (A) (A) (A)
       Virtual   (A) (A) (A) (A) (A) (A) (A) (A) (A) (A) (A) (A)
                 (A) (A) (A) (A) (A) (A) (A) (A) (A) (A) (A) (A)
                 (A) (A) (A) (A) (A) (A) (A) (A) (A) (A) (A) (A)
                 (A) (A) (A) (A) (A) (A) (A) (A) (A) (A) (A) (A)
                 (A) (A) (A) (A) (A) (A) (A) (A) (A) (A) (A) (A)
                 (A) (A) (A) (A) (A) (A) (A) (A) (A) (A) (A) (A)
                 (A) (A) (A) (A) (A) (A) (A) (A) (A) (A) (A) (A)
                 (A) (A) (A) (A) (A) (A) (A) (A) (A) (A) (A) (A)
                 (A) (A) (A) (A) (A) (A) (A) (A) (A) (A) (A) (A)
                 (A) (A) (A) (A) (A) (A) (A) (A) (A) (A) (A) (A)
                 (A) (A) (A) (A) (A) (A) (A) (A) (A) (A) (A) (A)
                 (A) (A) (A) (A) (A) (A) (A) (A) (A) (A) (A) (A)
                 (A) (A) (A) (A) (A) (A) (A) (A) (A) (A) (A) (A)
                 (A) (A) (A) (A) (A) (A) (A) (A) (A) (A) (A) (A)
                 (A) (A) (A) (A) (A) (A) (A) (A) (A) (A) (A) (A)
                 (A) (A) (A) (A) (A) (A) (A) (A) (A) (A) (A) (A)
                 (A) (A) (A) (A) (A) (A) (A) (A) (A) (A) (A) (A)
                 (A) (A) (A) (A) (A) (A) (A) (A) (A) (A) (A) (A)
                 (A) (A) (A) (A) (A) (A) (A) (A) (A) (A) (A) (A)
                 (A) (A) (A) (A) (A) (A) (A) (A) (A) (A) (A) (A)
                 (A) (A) (A) (A) (A) (A) (A) (A) (A) (A) (A) (A)
                 (A) (A) (A) (A) (A) (A) (A) (A) (A) (A) (A) (A)
                 (A)
 The electronic state is 1-A.
 Alpha  occ. eigenvalues --  -19.24320 -10.29375 -10.24851 -10.24607 -10.24535
 Alpha  occ. eigenvalues --  -10.24308 -10.23714 -10.23405 -10.22909 -10.22745
 Alpha  occ. eigenvalues --  -10.22710  -1.04851  -0.85575  -0.81895  -0.76095
 Alpha  occ. eigenvalues --   -0.75509  -0.69792  -0.69445  -0.62908  -0.62090
 Alpha  occ. eigenvalues --   -0.56870  -0.56099  -0.50858  -0.49036  -0.46960
 Alpha  occ. eigenvalues --   -0.45695  -0.44540  -0.43598  -0.43032  -0.40949
 Alpha  occ. eigenvalues --   -0.40225  -0.39669  -0.38786  -0.38375  -0.36802
 Alpha  occ. eigenvalues --   -0.35810  -0.35197  -0.34139  -0.33780  -0.32508
 Alpha  occ. eigenvalues --   -0.32028  -0.31203  -0.29507  -0.27453
 Alpha virt. eigenvalues --    0.00277   0.02053   0.02134   0.02551   0.03801
 Alpha virt. eigenvalues --    0.04209   0.04761   0.05059   0.05437   0.06786
 Alpha virt. eigenvalues --    0.07252   0.07650   0.07785   0.08694   0.09292
 Alpha virt. eigenvalues --    0.10018   0.10536   0.11037   0.11526   0.11761
 Alpha virt. eigenvalues --    0.11876   0.12915   0.13918   0.14125   0.15049
 Alpha virt. eigenvalues --    0.15960   0.16149   0.16538   0.16898   0.17803
 Alpha virt. eigenvalues --    0.17985   0.18935   0.19083   0.19887   0.20268
 Alpha virt. eigenvalues --    0.20318   0.20968   0.21152   0.21723   0.22205
 Alpha virt. eigenvalues --    0.22651   0.23349   0.23805   0.24123   0.24531
 Alpha virt. eigenvalues --    0.25209   0.25781   0.25937   0.26766   0.27532
 Alpha virt. eigenvalues --    0.27820   0.28299   0.29037   0.29611   0.29926
 Alpha virt. eigenvalues --    0.30833   0.31844   0.32255   0.33214   0.33538
 Alpha virt. eigenvalues --    0.33729   0.34729   0.35842   0.36139   0.36646
 Alpha virt. eigenvalues --    0.37245   0.38377   0.39902   0.40727   0.42226
 Alpha virt. eigenvalues --    0.43888   0.44354   0.45749   0.49894   0.54194
 Alpha virt. eigenvalues --    0.63922   0.64598   0.64750   0.66408   0.67158
 Alpha virt. eigenvalues --    0.67924   0.70067   0.71002   0.71601   0.72882
 Alpha virt. eigenvalues --    0.73736   0.74305   0.75296   0.76190   0.77814
 Alpha virt. eigenvalues --    0.79279   0.79923   0.81813   0.82624   0.83226
 Alpha virt. eigenvalues --    0.85736   0.86243   0.87551   0.89737   0.95495
 Alpha virt. eigenvalues --    0.96978   0.98385   0.99401   1.00135   1.00954
 Alpha virt. eigenvalues --    1.01748   1.02321   1.03138   1.03663   1.05006
 Alpha virt. eigenvalues --    1.05915   1.08404   1.09092   1.09803   1.10563
 Alpha virt. eigenvalues --    1.13092   1.14927   1.15560   1.15850   1.16791
 Alpha virt. eigenvalues --    1.17513   1.18786   1.20859   1.21001   1.21811
 Alpha virt. eigenvalues --    1.24161   1.26690   1.28107   1.29092   1.34166
 Alpha virt. eigenvalues --    1.36093   1.38793   1.40407   1.41748   1.46422
 Alpha virt. eigenvalues --    1.50193   1.52669   1.52919   1.55820   1.57623
 Alpha virt. eigenvalues --    1.58520   1.59500   1.61074   1.62682   1.67191
 Alpha virt. eigenvalues --    1.68749   1.74024   1.75780   1.77354   1.81611
 Alpha virt. eigenvalues --    1.82027   1.86329   1.86740   1.87365   1.88515
 Alpha virt. eigenvalues --    1.89399   1.89949   1.91316   1.93130   1.94171
 Alpha virt. eigenvalues --    1.96077   1.97253   1.99477   2.01583   2.04574
 Alpha virt. eigenvalues --    2.05659   2.06449   2.07632   2.08275   2.09832
 Alpha virt. eigenvalues --    2.10358   2.12326   2.13796   2.15134   2.15271
 Alpha virt. eigenvalues --    2.16906   2.17609   2.18241   2.19808   2.20384
 Alpha virt. eigenvalues --    2.21090   2.21835   2.24279   2.29703   2.30881
 Alpha virt. eigenvalues --    2.31332   2.34968   2.36211   2.36949   2.38573
 Alpha virt. eigenvalues --    2.40464   2.41106   2.42401   2.42712   2.44570
 Alpha virt. eigenvalues --    2.46623   2.49287   2.52110   2.53631   2.57749
 Alpha virt. eigenvalues --    2.57835   2.59512   2.62000   2.64519   2.65887
 Alpha virt. eigenvalues --    2.67011   2.69312   2.71218   2.72638   2.72859
 Alpha virt. eigenvalues --    2.73674   2.75309   2.76014   2.77682   2.78977
 Alpha virt. eigenvalues --    2.79519   2.82460   2.83345   2.85486   2.86211
 Alpha virt. eigenvalues --    2.86598   2.88920   2.91159   2.91991   2.92743
 Alpha virt. eigenvalues --    2.93938   2.94754   2.95103   2.95920   2.98152
 Alpha virt. eigenvalues --    3.01183   3.03102   3.09030   3.11654   3.29103
 Alpha virt. eigenvalues --    3.30849   3.31034   3.36717   3.36981   3.38210
 Alpha virt. eigenvalues --    3.41074   3.44950   3.48676   3.49322   3.50057
 Alpha virt. eigenvalues --    3.51832   3.53378   3.54232   3.56146   3.56600
 Alpha virt. eigenvalues --    3.57339   3.59944   3.61641   3.64684   4.37885
 Alpha virt. eigenvalues --    4.44409   4.46454   4.54002   4.59835   4.60144
 Alpha virt. eigenvalues --    4.69365   4.73217   4.82902   4.89797   4.94117
          Condensed to atoms (all electrons):
              1          2          3          4          5          6
     1  C    6.424867  -0.232783  -0.264327  -0.109678  -0.021993  -0.113335
     2  C   -0.232783   7.179837  -0.588358  -0.602910   0.317336  -0.606863
     3  C   -0.264327  -0.588358   6.492510  -0.386809  -0.107152   0.168198
     4  C   -0.109678  -0.602910  -0.386809   7.822791   0.005185   0.171529
     5  C   -0.021993   0.317336  -0.107152   0.005185   5.885777  -0.062860
     6  C   -0.113335  -0.606863   0.168198   0.171529  -0.062860   6.455588
     7  C    0.006143  -0.064888   0.000117   0.037386  -0.056766   0.003611
     8  O    0.052442   0.053814   0.030244  -0.165476  -0.075530  -0.013944
     9  C    0.002956   0.373108   0.260342  -1.298228  -0.056553  -0.076411
    10  C    0.006031  -0.140624  -0.026514   0.255333  -0.007283   0.036974
    11  C   -0.008399  -0.062425  -0.029347   0.201089  -0.026680  -0.027447
    12  H    0.284122   0.034706   0.030573  -0.006383  -0.012238  -0.023045
    13  H    0.039492   0.145880   0.016566   0.083097  -0.018497   0.053720
    14  H    0.039167   0.045443   0.284766  -0.041024   0.016032  -0.008236
    15  H    0.010085   0.014123   0.477093  -0.133146  -0.056136  -0.030869
    16  H    0.026141   0.006901   0.021748   0.211142  -0.024589  -0.031447
    17  H   -0.001078  -0.001741  -0.034727   0.015271   0.367810  -0.050535
    18  H   -0.086716  -0.021372  -0.077410   0.040092   0.430940   0.044920
    19  H    0.000767  -0.061402   0.013301   0.024386  -0.045247   0.352019
    20  H   -0.092369  -0.031911  -0.013111   0.013032   0.040022   0.407576
    21  H   -0.082565  -0.017022   0.006528   0.000466  -0.006509   0.037307
    22  H   -0.090342   0.000613  -0.009783  -0.005407   0.030196   0.010380
    23  H   -0.065315   0.017042  -0.000550   0.008670  -0.013874  -0.020266
    24  H   -0.035591   0.023225  -0.007566   0.057549   0.013072  -0.023886
    25  H    0.001106  -0.001494   0.029583  -0.142071  -0.002731   0.001912
    26  H   -0.000335  -0.002053   0.015368  -0.031445   0.000508   0.000946
    27  H    0.001307   0.002317  -0.006240   0.004725   0.000726  -0.001313
    28  H   -0.000258  -0.009061  -0.004928   0.065218   0.000985   0.000559
    29  H    0.000742  -0.001666   0.005500  -0.017960  -0.000644   0.003529
    30  H    0.000220   0.014441  -0.002233  -0.013004  -0.000961  -0.001859
    31  H    0.000038  -0.008499  -0.006119   0.061450   0.000009  -0.000425
              7          8          9         10         11         12
     1  C    0.006143   0.052442   0.002956   0.006031  -0.008399   0.284122
     2  C   -0.064888   0.053814   0.373108  -0.140624  -0.062425   0.034706
     3  C    0.000117   0.030244   0.260342  -0.026514  -0.029347   0.030573
     4  C    0.037386  -0.165476  -1.298228   0.255333   0.201089  -0.006383
     5  C   -0.056766  -0.075530  -0.056553  -0.007283  -0.026680  -0.012238
     6  C    0.003611  -0.013944  -0.076411   0.036974  -0.027447  -0.023045
     7  C    5.455244   0.016094   0.009564   0.000229   0.003764  -0.019894
     8  O    0.016094   8.435665   0.069083   0.015223  -0.035926  -0.001181
     9  C    0.009564   0.069083   7.308464  -0.319299  -0.300454   0.000714
    10  C    0.000229   0.015223  -0.319299   5.591075  -0.069382   0.000224
    11  C    0.003764  -0.035926  -0.300454  -0.069382   5.663068   0.000073
    12  H   -0.019894  -0.001181   0.000714   0.000224   0.000073   0.581162
    13  H   -0.001454  -0.035463  -0.054685   0.014470   0.009833  -0.000171
    14  H    0.000241  -0.001194   0.008101  -0.012661  -0.004625  -0.000130
    15  H    0.012546   0.006168   0.019532  -0.005500   0.003020  -0.000053
    16  H    0.002986   0.011655   0.051253  -0.007967  -0.010289  -0.000059
    17  H    0.014674   0.000353   0.005047  -0.000893   0.002387  -0.006113
    18  H   -0.000445   0.000521  -0.007352   0.000141  -0.000072  -0.001947
    19  H    0.015346   0.010918   0.007815   0.000187   0.003498  -0.006658
    20  H    0.009058  -0.016060  -0.002393  -0.000185  -0.001072  -0.001518
    21  H    0.416232   0.001074  -0.000727   0.000071  -0.000099  -0.004178
    22  H    0.420893  -0.001369  -0.000077  -0.000056  -0.000280  -0.003728
    23  H    0.439809  -0.009893   0.000088   0.000556   0.000079   0.004737
    24  H    0.011697   0.211138  -0.018064  -0.001625   0.005036   0.000000
    25  H    0.001272   0.008693   0.411771  -0.033583  -0.000066   0.000000
    26  H    0.000140   0.000194  -0.062341   0.422216   0.003871   0.000000
    27  H   -0.000164  -0.000115  -0.075224   0.443161  -0.006882   0.000000
    28  H   -0.000030   0.000019  -0.168534   0.467836   0.006836   0.000000
    29  H    0.000062   0.000551  -0.071528  -0.005187   0.432485   0.000000
    30  H   -0.000161   0.000994  -0.074469  -0.007651   0.449353   0.000000
    31  H   -0.000044  -0.000066  -0.171445   0.011525   0.470039   0.000000
             13         14         15         16         17         18
     1  C    0.039492   0.039167   0.010085   0.026141  -0.001078  -0.086716
     2  C    0.145880   0.045443   0.014123   0.006901  -0.001741  -0.021372
     3  C    0.016566   0.284766   0.477093   0.021748  -0.034727  -0.077410
     4  C    0.083097  -0.041024  -0.133146   0.211142   0.015271   0.040092
     5  C   -0.018497   0.016032  -0.056136  -0.024589   0.367810   0.430940
     6  C    0.053720  -0.008236  -0.030869  -0.031447  -0.050535   0.044920
     7  C   -0.001454   0.000241   0.012546   0.002986   0.014674  -0.000445
     8  O   -0.035463  -0.001194   0.006168   0.011655   0.000353   0.000521
     9  C   -0.054685   0.008101   0.019532   0.051253   0.005047  -0.007352
    10  C    0.014470  -0.012661  -0.005500  -0.007967  -0.000893   0.000141
    11  C    0.009833  -0.004625   0.003020  -0.010289   0.002387  -0.000072
    12  H   -0.000171  -0.000130  -0.000053  -0.000059  -0.006113  -0.001947
    13  H    0.633017  -0.000123  -0.000071  -0.003484  -0.000046   0.000014
    14  H   -0.000123   0.567165  -0.030396  -0.004734  -0.004812  -0.003005
    15  H   -0.000071  -0.030396   0.528854   0.004935   0.004531  -0.003242
    16  H   -0.003484  -0.004734   0.004935   0.575699   0.003027   0.000022
    17  H   -0.000046  -0.004812   0.004531   0.003027   0.554950  -0.028164
    18  H    0.000014  -0.003005  -0.003242   0.000022  -0.028164   0.554235
    19  H   -0.002792  -0.000030   0.000082   0.001796   0.002652  -0.000036
    20  H   -0.005493   0.000011  -0.000007   0.000031  -0.000030  -0.000139
    21  H    0.000006  -0.000016   0.000074  -0.000001   0.000051   0.003087
    22  H   -0.000021   0.000002  -0.000036   0.000001  -0.000138   0.000081
    23  H   -0.000087  -0.000035  -0.000897  -0.000025  -0.000078  -0.000099
    24  H   -0.007081   0.000008  -0.000185  -0.000271   0.000001  -0.000005
    25  H    0.000093  -0.000196   0.003734   0.005352   0.000003   0.000000
    26  H    0.000015   0.000128   0.000070   0.004244   0.000008   0.000000
    27  H    0.000001   0.000564   0.000207  -0.000245   0.000014   0.000007
    28  H   -0.000003   0.000008  -0.000027   0.000007   0.000000   0.000000
    29  H   -0.000490   0.000000   0.000004   0.003277   0.000000   0.000000
    30  H   -0.001455   0.000002   0.000000  -0.000050   0.000000   0.000000
    31  H    0.000159  -0.000003  -0.000001  -0.000044   0.000000   0.000000
             19         20         21         22         23         24
     1  C    0.000767  -0.092369  -0.082565  -0.090342  -0.065315  -0.035591
     2  C   -0.061402  -0.031911  -0.017022   0.000613   0.017042   0.023225
     3  C    0.013301  -0.013111   0.006528  -0.009783  -0.000550  -0.007566
     4  C    0.024386   0.013032   0.000466  -0.005407   0.008670   0.057549
     5  C   -0.045247   0.040022  -0.006509   0.030196  -0.013874   0.013072
     6  C    0.352019   0.407576   0.037307   0.010380  -0.020266  -0.023886
     7  C    0.015346   0.009058   0.416232   0.420893   0.439809   0.011697
     8  O    0.010918  -0.016060   0.001074  -0.001369  -0.009893   0.211138
     9  C    0.007815  -0.002393  -0.000727  -0.000077   0.000088  -0.018064
    10  C    0.000187  -0.000185   0.000071  -0.000056   0.000556  -0.001625
    11  C    0.003498  -0.001072  -0.000099  -0.000280   0.000079   0.005036
    12  H   -0.006658  -0.001518  -0.004178  -0.003728   0.004737   0.000000
    13  H   -0.002792  -0.005493   0.000006  -0.000021  -0.000087  -0.007081
    14  H   -0.000030   0.000011  -0.000016   0.000002  -0.000035   0.000008
    15  H    0.000082  -0.000007   0.000074  -0.000036  -0.000897  -0.000185
    16  H    0.001796   0.000031  -0.000001   0.000001  -0.000025  -0.000271
    17  H    0.002652  -0.000030   0.000051  -0.000138  -0.000078   0.000001
    18  H   -0.000036  -0.000139   0.003087   0.000081  -0.000099  -0.000005
    19  H    0.542880  -0.026076  -0.000131   0.000035  -0.000130   0.000055
    20  H   -0.026076   0.562454   0.000060   0.002936   0.000014   0.005356
    21  H   -0.000131   0.000060   0.540113  -0.025666  -0.026525  -0.000007
    22  H    0.000035   0.002936  -0.025666   0.543811  -0.027302   0.000087
    23  H   -0.000130   0.000014  -0.026525  -0.027302   0.505107  -0.000865
    24  H    0.000055   0.005356  -0.000007   0.000087  -0.000865   0.403952
    25  H    0.000002   0.000002   0.000000   0.000000  -0.000027  -0.000123
    26  H    0.000002   0.000000   0.000000   0.000000   0.000000   0.000000
    27  H    0.000000   0.000000   0.000000   0.000000   0.000000   0.000000
    28  H    0.000000   0.000000   0.000000   0.000000   0.000000   0.000000
    29  H    0.000007   0.000002   0.000000   0.000000   0.000000  -0.000007
    30  H    0.000003   0.000005   0.000000   0.000000   0.000000  -0.000104
    31  H    0.000000   0.000000   0.000000   0.000000   0.000000   0.000001
             25         26         27         28         29         30
     1  C    0.001106  -0.000335   0.001307  -0.000258   0.000742   0.000220
     2  C   -0.001494  -0.002053   0.002317  -0.009061  -0.001666   0.014441
     3  C    0.029583   0.015368  -0.006240  -0.004928   0.005500  -0.002233
     4  C   -0.142071  -0.031445   0.004725   0.065218  -0.017960  -0.013004
     5  C   -0.002731   0.000508   0.000726   0.000985  -0.000644  -0.000961
     6  C    0.001912   0.000946  -0.001313   0.000559   0.003529  -0.001859
     7  C    0.001272   0.000140  -0.000164  -0.000030   0.000062  -0.000161
     8  O    0.008693   0.000194  -0.000115   0.000019   0.000551   0.000994
     9  C    0.411771  -0.062341  -0.075224  -0.168534  -0.071528  -0.074469
    10  C   -0.033583   0.422216   0.443161   0.467836  -0.005187  -0.007651
    11  C   -0.000066   0.003871  -0.006882   0.006836   0.432485   0.449353
    12  H    0.000000   0.000000   0.000000   0.000000   0.000000   0.000000
    13  H    0.000093   0.000015   0.000001  -0.000003  -0.000490  -0.001455
    14  H   -0.000196   0.000128   0.000564   0.000008   0.000000   0.000002
    15  H    0.003734   0.000070   0.000207  -0.000027   0.000004   0.000000
    16  H    0.005352   0.004244  -0.000245   0.000007   0.003277  -0.000050
    17  H    0.000003   0.000008   0.000014   0.000000   0.000000   0.000000
    18  H    0.000000   0.000000   0.000007   0.000000   0.000000   0.000000
    19  H    0.000002   0.000002   0.000000   0.000000   0.000007   0.000003
    20  H    0.000002   0.000000   0.000000   0.000000   0.000002   0.000005
    21  H    0.000000   0.000000   0.000000   0.000000   0.000000   0.000000
    22  H    0.000000   0.000000   0.000000   0.000000   0.000000   0.000000
    23  H   -0.000027   0.000000   0.000000   0.000000   0.000000   0.000000
    24  H   -0.000123   0.000000   0.000000   0.000000  -0.000007  -0.000104
    25  H    0.549805   0.004740  -0.003973  -0.003040   0.004723  -0.004209
    26  H    0.004740   0.537003  -0.029227  -0.028118   0.002781  -0.000013
    27  H   -0.003973  -0.029227   0.537882  -0.026321  -0.000040  -0.000130
    28  H   -0.003040  -0.028118  -0.026321   0.532671  -0.000126   0.000108
    29  H    0.004723   0.002781  -0.000040  -0.000126   0.539008  -0.028653
    30  H   -0.004209  -0.000013  -0.000130   0.000108  -0.028653   0.519555
    31  H   -0.002653  -0.000184   0.000131   0.003070  -0.028417  -0.025091
             31
     1  C    0.000038
     2  C   -0.008499
     3  C   -0.006119
     4  C    0.061450
     5  C    0.000009
     6  C   -0.000425
     7  C   -0.000044
     8  O   -0.000066
     9  C   -0.171445
    10  C    0.011525
    11  C    0.470039
    12  H    0.000000
    13  H    0.000159
    14  H   -0.000003
    15  H   -0.000001
    16  H   -0.000044
    17  H    0.000000
    18  H    0.000000
    19  H    0.000000
    20  H    0.000000
    21  H    0.000000
    22  H    0.000000
    23  H    0.000000
    24  H    0.000001
    25  H   -0.002653
    26  H   -0.000184
    27  H    0.000131
    28  H    0.003070
    29  H   -0.028417
    30  H   -0.025091
    31  H    0.536066
 Mulliken atomic charges:
              1
     1  C    0.309458
     2  C    0.226288
     3  C   -0.287264
     4  C   -0.124868
     5  C   -0.512356
     6  C   -0.656026
     7  C   -0.733259
     8  O   -0.568627
     9  C    0.229947
    10  C   -0.626842
    11  C   -0.670985
    12  H    0.150987
    13  H    0.135051
    14  H    0.149580
    15  H    0.175508
    16  H    0.152988
    17  H    0.157575
    18  H    0.155944
    19  H    0.166751
    20  H    0.149808
    21  H    0.158378
    22  H    0.155172
    23  H    0.189866
    24  H    0.364204
    25  H    0.171375
    26  H    0.161482
    27  H    0.158832
    28  H    0.163125
    29  H    0.162045
    30  H    0.175362
    31  H    0.160500
 Sum of Mulliken atomic charges =   0.00000
 Mulliken charges with hydrogens summed into heavy atoms:
              1
     1  C    0.460444
     2  C    0.361340
     3  C    0.037824
     4  C    0.028121
     5  C   -0.198836
     6  C   -0.339467
     7  C   -0.229844
     8  O   -0.204423
     9  C    0.401322
    10  C   -0.143403
    11  C   -0.173078
 Sum of Mulliken charges with hydrogens summed into heavy atoms =   0.00000
 Electronic spatial extent (au):  <R**2>=           2068.6525
 Charge=              0.0000 electrons
 Dipole moment (field-independent basis, Debye):
    X=              0.9424    Y=             -0.5740    Z=              1.2814  Tot=              1.6910
 Quadrupole moment (field-independent basis, Debye-Ang):
   XX=            -72.1127   YY=            -68.6660   ZZ=            -73.1825
   XY=             -2.4708   XZ=              0.1688   YZ=             -0.8613
 Traceless Quadrupole moment (field-independent basis, Debye-Ang):
   XX=             -0.7923   YY=              2.6544   ZZ=             -1.8621
   XY=             -2.4708   XZ=              0.1688   YZ=             -0.8613
 Octapole moment (field-independent basis, Debye-Ang**2):
  XXX=              3.5327  YYY=            -20.7816  ZZZ=              0.6162  XYY=             10.7684
  XXY=             -4.6694  XXZ=             -2.5760  XZZ=              0.1158  YZZ=             -0.3602
  YYZ=             -3.5779  XYZ=              1.2825
 Hexadecapole moment (field-independent basis, Debye-Ang**3):
 XXXX=          -1916.5449 YYYY=           -623.9666 ZZZZ=           -313.9894 XXXY=              1.5707
 XXXZ=             18.0210 YYYX=            -22.4957 YYYZ=             13.8793 ZZZX=              1.3445
 ZZZY=              6.7138 XXYY=           -428.5548 XXZZ=           -372.1894 YYZZ=           -164.2337
 XXYZ=              3.6887 YYXZ=             -7.7520 ZZXY=             -2.0181
 N-N= 6.989179660116D+02 E-N=-2.483431276268D+03  KE= 4.636959958825D+02
 1\1\GINC-COMPUTE-10-6\SP\RmPW1PW91\6-31+G(d,p)\C10H20O1\ASAROTTI.IQUIR
 \19-Sep-2024\0\\# mPW1PW91/6-31+G** nmr scrf=(pcm,solvent=benzene)\\co
 mment\\0,1\C,0,2.353613,0.289475,0.434225\C,0,0.12462,-1.05447,0.41155
 5\C,0,0.143881,1.365735,-0.31945\C,0,-0.692185,0.252318,0.347448\C,0,1
 .500928,1.572161,0.372372\C,0,1.510937,-0.848997,1.046959\C,0,2.975206
 ,-0.074531,-0.924832\O,0,0.207582,-1.57152,-0.925157\C,0,-2.082286,0.0
 6375,-0.320378\C,0,-2.954168,1.324859,-0.190567\C,0,-2.849596,-1.14803
 1,0.235767\H,0,3.188053,0.478937,1.125103\H,0,-0.419034,-1.776417,1.04
 0264\H,0,-0.406493,2.312426,-0.299009\H,0,0.291374,1.113879,-1.377236\
 H,0,-0.866906,0.544955,1.396948\H,0,1.321025,1.92643,1.398501\H,0,2.06
 1797,2.368919,-0.134263\H,0,1.351592,-0.637478,2.114399\H,0,2.066549,-
 1.79908,1.00928\H,0,3.608317,0.743217,-1.29064\H,0,3.609573,-0.965927,
 -0.834307\H,0,2.213175,-0.285453,-1.679352\H,0,0.778158,-2.355255,-0.9
 00605\H,0,-1.905995,-0.121754,-1.388173\H,0,-3.132288,1.574562,0.86427
 9\H,0,-2.50439,2.199901,-0.669547\H,0,-3.932095,1.164227,-0.659495\H,0
 ,-2.97542,-1.077925,1.325\H,0,-2.341651,-2.089466,0.007615\H,0,-3.8517
 05,-1.20016,-0.206096\\Version=AM64L-G09RevC.01\State=1-A\HF=-468.2801
 369\RMSD=6.923e-09\Dipole=0.3707669,-0.2258354,0.5041406\Quadrupole=-0
 .5890546,1.97348,-1.3844254,-1.8369911,0.125495,-0.6403471\PG=C01 [X(C
 10H20O1)]\\@


 I HAVE NOT FAILED, I HAVE ONLY DISCOVERED 10,000
 WAYS THAT DIDN'T WORK.  -- THOMAS A. EDISON
 Job cpu time:  0 days  0 hours 11 minutes 46.2 seconds.
 File lengths (MBytes):  RWF=    120 Int=      0 D2E=      0 Chk=      7 Scr=      1
 Normal termination of Gaussian 09 at Thu Sep 19 09:51:41 2024.
