 Entering Gaussian System, Link 0=g09
 Input=/home/asarotti.iquir/SCF2/04_Mentol17_OptB_NMR_benzene.gjc
 Output=/home/asarotti.iquir/SCF2/04_Mentol17_OptB_NMR_benzene.log
 Initial command:
 /opt/ohpc/pub/apps/software/Gaussian/09/AMD64.SSE4a-enabled/g09/l1.exe /local/asarotti.iquir/Gau-2487897.inp -scrdir=/local/asarotti.iquir/
 Entering Link 1 = /opt/ohpc/pub/apps/software/Gaussian/09/AMD64.SSE4a-enabled/g09/l1.exe PID=   2487899.
  
 Copyright (c) 1988,1990,1992,1993,1995,1998,2003,2009,2011,
            Gaussian, Inc.  All Rights Reserved.
  
 This is part of the Gaussian(R) 09 program.  It is based on
 the Gaussian(R) 03 system (copyright 2003, Gaussian, Inc.),
 the Gaussian(R) 98 system (copyright 1998, Gaussian, Inc.),
 the Gaussian(R) 94 system (copyright 1995, Gaussian, Inc.),
 the Gaussian 92(TM) system (copyright 1992, Gaussian, Inc.),
 the Gaussian 90(TM) system (copyright 1990, Gaussian, Inc.),
 the Gaussian 88(TM) system (copyright 1988, Gaussian, Inc.),
 the Gaussian 86(TM) system (copyright 1986, Carnegie Mellon
 University), and the Gaussian 82(TM) system (copyright 1983,
 Carnegie Mellon University). Gaussian is a federally registered
 trademark of Gaussian, Inc.
  
 This software contains proprietary and confidential information,
 including trade secrets, belonging to Gaussian, Inc.
  
 This software is provided under written license and may be
 used, copied, transmitted, or stored only in accord with that
 written license.
  
 The following legend is applicable only to US Government
 contracts under FAR:
  
                    RESTRICTED RIGHTS LEGEND
  
 Use, reproduction and disclosure by the US Government is
 subject to restrictions as set forth in subparagraphs (a)
 and (c) of the Commercial Computer Software - Restricted
 Rights clause in FAR 52.227-19.
  
 Gaussian, Inc.
 340 Quinnipiac St., Bldg. 40, Wallingford CT 06492
  
  
 ---------------------------------------------------------------
 Warning -- This program may not be used in any manner that
 competes with the business of Gaussian, Inc. or will provide
 assistance to any competitor of Gaussian, Inc.  The licensee
 of this program is prohibited from giving any competitor of
 Gaussian, Inc. access to this program.  By using this program,
 the user acknowledges that Gaussian, Inc. is engaged in the
 business of creating and licensing software in the field of
 computational chemistry and represents and warrants to the
 licensee that it is not a competitor of Gaussian, Inc. and that
 it will not use this program in any manner prohibited above.
 ---------------------------------------------------------------
  

 Cite this work as:
 Gaussian 09, Revision C.01,
 M. J. Frisch, G. W. Trucks, H. B. Schlegel, G. E. Scuseria, 
 M. A. Robb, J. R. Cheeseman, G. Scalmani, V. Barone, B. Mennucci, 
 G. A. Petersson, H. Nakatsuji, M. Caricato, X. Li, H. P. Hratchian, 
 A. F. Izmaylov, J. Bloino, G. Zheng, J. L. Sonnenberg, M. Hada, 
 M. Ehara, K. Toyota, R. Fukuda, J. Hasegawa, M. Ishida, T. Nakajima, 
 Y. Honda, O. Kitao, H. Nakai, T. Vreven, J. A. Montgomery, Jr., 
 J. E. Peralta, F. Ogliaro, M. Bearpark, J. J. Heyd, E. Brothers, 
 K. N. Kudin, V. N. Staroverov, T. Keith, R. Kobayashi, J. Normand, 
 K. Raghavachari, A. Rendell, J. C. Burant, S. S. Iyengar, J. Tomasi, 
 M. Cossi, N. Rega, J. M. Millam, M. Klene, J. E. Knox, J. B. Cross, 
 V. Bakken, C. Adamo, J. Jaramillo, R. Gomperts, R. E. Stratmann, 
 O. Yazyev, A. J. Austin, R. Cammi, C. Pomelli, J. W. Ochterski, 
 R. L. Martin, K. Morokuma, V. G. Zakrzewski, G. A. Voth, 
 P. Salvador, J. J. Dannenberg, S. Dapprich, A. D. Daniels, 
 O. Farkas, J. B. Foresman, J. V. Ortiz, J. Cioslowski, 
 and D. J. Fox, Gaussian, Inc., Wallingford CT, 2010.
 
 ******************************************
 Gaussian 09:  AM64L-G09RevC.01 23-Sep-2011
                19-Sep-2024 
 ******************************************
 %nprocshared=4
 Will use up to    4 processors via shared memory.
 %mem=100mw
 --------------------------------------------------
 # mPW1PW91/6-31+G** nmr scrf=(pcm,solvent=benzene)
 --------------------------------------------------
 1/38=1/1;
 2/12=2,17=6,18=5,40=1/2;
 3/5=1,6=6,7=111,11=2,16=1,25=1,30=1,70=2201,72=12,74=-7/1,2,8,3;
 4//1;
 5/5=2,38=5,53=12/2;
 8/6=1,10=90,11=11/1;
 10/13=100,45=16/2;
 6/7=2,8=2,9=2,10=2,28=1/1;
 99/9=1/99;
 -------
 comment
 -------
 Charge =  0 Multiplicity = 1
 Symbolic Z-Matrix:
 6                     2.16803   0.0774   -0.17071 
 6                    -0.12942   1.09235  -0.68478 
 6                     0.31747  -1.33172  -1.20045 
 6                    -0.7907   -0.30424  -0.84854 
 6                     1.53413  -1.32096  -0.26287 
 6                     1.10312   1.11314   0.23386 
 6                     3.37285   0.10462   0.77639 
 8                    -1.05276   2.12995  -0.33866 
 6                    -1.78451  -0.79328   0.25809 
 6                    -3.19717  -0.22166   0.02506 
 6                    -1.37992  -0.59454   1.73123 
 1                     2.52398   0.34424  -1.17914 
 1                     0.21665   1.37922  -1.68698 
 1                     0.67464  -1.11146  -2.21744 
 1                    -0.11843  -2.33814  -1.2458 
 1                    -1.4157   -0.222    -1.74841 
 1                     2.2798   -2.04238  -0.62365 
 1                     1.24795  -1.65713   0.74322 
 1                     1.52706   2.12525   0.20684 
 1                     0.80282   0.9286    1.2746 
 1                     4.14304  -0.60886   0.45948 
 1                     3.83127   1.10022   0.81032 
 1                     3.07555  -0.15975   1.79953 
 1                    -1.23597   2.05149   0.60997 
 1                    -1.86262  -1.88093   0.11043 
 1                    -3.2002    0.87101   0.08033 
 1                    -3.57267  -0.4973   -0.96737 
 1                    -3.90437  -0.60924   0.76876 
 1                    -1.36245   0.46344   2.02325 
 1                    -0.39882  -1.01757   1.96436 
 1                    -2.1127   -1.08493   2.38332 
 
                          Input orientation:                          
 ---------------------------------------------------------------------
 Center     Atomic      Atomic             Coordinates (Angstroms)
 Number     Number       Type             X           Y           Z
 ---------------------------------------------------------------------
      1          6           0        2.168027    0.077402   -0.170706
      2          6           0       -0.129418    1.092348   -0.684782
      3          6           0        0.317470   -1.331722   -1.200451
      4          6           0       -0.790696   -0.304243   -0.848537
      5          6           0        1.534131   -1.320960   -0.262873
      6          6           0        1.103115    1.113141    0.233857
      7          6           0        3.372852    0.104615    0.776389
      8          8           0       -1.052763    2.129955   -0.338658
      9          6           0       -1.784512   -0.793281    0.258090
     10          6           0       -3.197170   -0.221663    0.025055
     11          6           0       -1.379921   -0.594544    1.731233
     12          1           0        2.523982    0.344239   -1.179137
     13          1           0        0.216650    1.379219   -1.686983
     14          1           0        0.674641   -1.111457   -2.217438
     15          1           0       -0.118428   -2.338135   -1.245803
     16          1           0       -1.415698   -0.221999   -1.748406
     17          1           0        2.279795   -2.042381   -0.623646
     18          1           0        1.247948   -1.657129    0.743222
     19          1           0        1.527058    2.125249    0.206835
     20          1           0        0.802823    0.928603    1.274595
     21          1           0        4.143043   -0.608856    0.459483
     22          1           0        3.831274    1.100222    0.810321
     23          1           0        3.075548   -0.159754    1.799530
     24          1           0       -1.235973    2.051489    0.609967
     25          1           0       -1.862622   -1.880926    0.110427
     26          1           0       -3.200199    0.871012    0.080327
     27          1           0       -3.572671   -0.497298   -0.967368
     28          1           0       -3.904365   -0.609235    0.768756
     29          1           0       -1.362448    0.463435    2.023253
     30          1           0       -0.398816   -1.017569    1.964361
     31          1           0       -2.112701   -1.084935    2.383324
 ---------------------------------------------------------------------
                    Distance matrix (angstroms):
                    1          2          3          4          5
     1  C    0.000000
     2  C    2.563717   0.000000
     3  C    2.543731   2.518281   0.000000
     4  C    3.059273   1.553889   1.551641   0.000000
     5  C    1.538095   2.961327   1.536044   2.604138   0.000000
     6  C    1.539631   1.537357   2.941400   2.601360   2.521381
     7  C    1.532753   3.921292   3.912329   4.488060   2.548181
     8  O    3.822914   1.431431   3.821444   2.500795   4.313534
     9  C    4.069953   2.680287   2.614496   1.565711   3.400476
    10  C    5.377090   3.411978   3.884172   2.561464   4.865857
    11  C    4.081277   3.201014   3.466892   2.662081   3.604974
    12  H    1.102197   2.800819   2.770919   3.393658   2.142949
    13  H    2.793152   1.098392   2.756099   2.133491   3.324878
    14  H    2.798696   2.802196   1.100159   2.161642   2.145446
    15  H    3.495501   3.476072   1.097693   2.178642   2.175258
    16  H    3.927068   2.124458   2.129697   1.098706   3.480807
    17  H    2.170513   3.954058   2.165285   3.535479   1.098463
    18  H    2.165735   3.390569   2.179345   2.918915   1.098698
    19  H    2.178774   2.146108   3.923545   3.519691   3.478079
    20  H    2.162688   2.176016   3.386811   2.926927   2.821197
    21  H    2.183753   4.738920   4.232366   5.113266   2.799163
    22  H    2.185169   4.233495   4.722751   5.107537   3.505814
    23  H    2.182124   4.243981   4.240329   4.688388   2.824513
    24  H    4.011694   1.954684   4.139676   2.806239   4.450701
    25  H    4.490013   3.532239   2.602466   2.134143   3.462780
    26  H    5.432374   3.172393   4.343550   2.837202   5.228423
    27  H    5.824136   3.803002   3.985447   2.791196   5.220552
    28  H    6.182880   4.388437   4.714197   3.521873   5.581044
    29  H    4.174534   3.041274   4.054255   3.027112   4.098854
    30  H    3.513710   3.397394   3.260030   2.928276   2.964608
    31  H    5.118469   4.252910   4.337059   3.578003   4.511923
                    6          7          8          9         10
     6  C    0.000000
     7  C    2.542277   0.000000
     8  O    2.451427   4.993135   0.000000
     9  C    3.460263   5.260537   3.071949   0.000000
    10  C    4.507522   6.620887   3.203260   1.541640   0.000000
    11  C    3.365084   4.897898   3.437205   1.540565   2.520412
    12  H    2.146305   2.145246   4.085131   4.682168   5.873832
    13  H    2.132192   4.201717   1.998248   3.536625   4.141022
    14  H    3.337855   4.209771   4.125590   3.503842   4.561954
    15  H    3.948780   4.716495   4.654001   2.724721   3.946288
    16  H    3.472230   5.423235   2.766008   2.118588   2.513724
    17  H    3.475228   2.786479   5.347481   4.342384   5.808009
    18  H    2.820430   2.760445   4.561331   3.190204   4.726034
    19  H    1.097643   2.795409   2.636866   4.414401   5.278198
    20  H    1.098802   2.744488   2.736609   3.269934   4.345619
    21  H    3.501049   1.096661   5.927437   5.933842   7.363245
    22  H    2.788428   1.096602   5.121945   5.952089   7.194654
    23  H    2.821717   1.097770   5.182429   5.137857   6.519171
    24  H    2.548193   5.005925   0.969336   2.918463   3.058698
    25  H    4.216073   5.638800   4.116396   1.100399   2.131070
    26  H    4.312854   6.654086   2.524276   2.192177   1.094076
    27  H    5.089148   7.186326   3.694275   2.187891   1.096302
    28  H    5.322363   7.312149   4.106234   2.188248   1.097009
    29  H    3.114973   4.909836   2.907201   2.207549   2.797921
    30  H    3.128956   4.110481   3.954548   2.209484   3.496450
    31  H    4.448957   5.838541   4.343751   2.170113   2.735461
                   11         12         13         14         15
    11  C    0.000000
    12  H    4.959035   0.000000
    13  H    4.257814   2.579316   0.000000
    14  H    4.481119   2.572388   2.587394   0.000000
    15  H    3.673448   3.765887   3.758409   1.754358   0.000000
    16  H    3.499708   4.020668   2.287407   2.319621   2.532499
    17  H    4.586416   2.462550   4.134562   2.446081   2.495200
    18  H    3.001824   3.054374   4.023541   3.064628   2.507384
    19  H    4.262815   2.467139   2.420801   4.132793   4.973890
    20  H    2.700531   3.053632   3.052474   4.046303   4.227610
    21  H    5.667511   2.492955   4.896562   4.410026   4.904951
    22  H    5.556695   2.497692   4.402258   4.901345   5.625841
    23  H    4.477154   3.070943   4.764190   4.775576   4.921471
    24  H    2.877403   4.500317   2.799650   4.652837   4.895058
    25  H    2.124804   5.084941   4.264106   3.528277   2.256239
    26  H    2.861251   5.884725   3.880273   4.921818   4.642689
    27  H    3.478514   6.158101   4.289302   4.469846   3.924029
    28  H    2.701739   6.784323   5.193011   5.489707   4.623944
    29  H    1.097680   5.037246   4.134980   4.961197   4.481418
    30  H    1.093557   4.503204   4.410862   4.318399   3.482480
    31  H    1.096664   6.019343   5.297672   5.379311   4.326453
                   16         17         18         19         20
    16  H    0.000000
    17  H    4.270310   0.000000
    18  H    3.919543   1.755407   0.000000
    19  H    4.241739   4.315721   3.830404   0.000000
    20  H    3.922277   3.822501   2.677033   1.759713   0.000000
    21  H    5.993666   2.588408   3.092080   3.792432   3.766332
    22  H    5.985488   3.786727   3.779029   2.593123   3.068635
    23  H    5.723899   3.170061   2.588057   3.186807   2.573977
    24  H    3.280697   5.535539   4.465587   2.793259   2.420598
    25  H    2.531213   4.210053   3.182163   5.248682   4.043926
    26  H    2.779097   6.246100   5.159161   4.892451   4.177772
    27  H    2.310485   6.062737   5.244968   5.853524   5.119037
    28  H    3.560831   6.498963   5.257857   6.106842   4.977794
    29  H    3.833806   5.152778   3.598533   3.796083   2.337791
    30  H    3.930855   3.863027   2.147568   4.083527   2.388995
    31  H    4.278044   5.408567   3.783028   5.318856   3.712667
                   21         22         23         24         25
    21  H    0.000000
    22  H    1.772353   0.000000
    23  H    1.771148   1.771213   0.000000
    24  H    6.002824   5.159655   4.989376   0.000000
    25  H    6.148822   6.465102   5.495546   4.013243   0.000000
    26  H    7.500465   7.072980   6.588106   2.352069   3.059932
    27  H    7.847330   7.780145   7.208916   3.800587   2.449558
    28  H    8.053349   7.922379   7.069916   3.771602   2.493854
    29  H    5.822853   5.371355   4.487118   2.129622   3.066775
    30  H    4.802102   4.869344   3.582488   3.457504   2.514992
    31  H    6.562176   6.525342   5.302330   3.708180   2.421198
                   26         27         28         29         30
    26  H    0.000000
    27  H    1.763143   0.000000
    28  H    1.777896   1.771067   0.000000
    29  H    2.705256   3.840821   3.030796   0.000000
    30  H    3.868342   4.351904   3.726269   1.767888   0.000000
    31  H    3.211258   3.701887   2.458288   1.757834   1.765636
                   31
    31  H    0.000000
 Stoichiometry    C10H20O
 Framework group  C1[X(C10H20O)]
 Deg. of freedom    87
 Full point group                 C1      NOp   1
 Largest Abelian subgroup         C1      NOp   1
 Largest concise Abelian subgroup C1      NOp   1
                         Standard orientation:                         
 ---------------------------------------------------------------------
 Center     Atomic      Atomic             Coordinates (Angstroms)
 Number     Number       Type             X           Y           Z
 ---------------------------------------------------------------------
      1          6           0        2.168027    0.077402   -0.170706
      2          6           0       -0.129418    1.092348   -0.684782
      3          6           0        0.317470   -1.331722   -1.200451
      4          6           0       -0.790696   -0.304243   -0.848537
      5          6           0        1.534131   -1.320960   -0.262873
      6          6           0        1.103115    1.113141    0.233857
      7          6           0        3.372852    0.104615    0.776389
      8          8           0       -1.052763    2.129955   -0.338658
      9          6           0       -1.784512   -0.793281    0.258090
     10          6           0       -3.197170   -0.221663    0.025055
     11          6           0       -1.379921   -0.594544    1.731233
     12          1           0        2.523982    0.344239   -1.179137
     13          1           0        0.216650    1.379219   -1.686983
     14          1           0        0.674641   -1.111457   -2.217438
     15          1           0       -0.118428   -2.338135   -1.245803
     16          1           0       -1.415698   -0.221999   -1.748406
     17          1           0        2.279795   -2.042381   -0.623646
     18          1           0        1.247948   -1.657129    0.743222
     19          1           0        1.527058    2.125249    0.206835
     20          1           0        0.802823    0.928603    1.274595
     21          1           0        4.143043   -0.608856    0.459483
     22          1           0        3.831274    1.100222    0.810321
     23          1           0        3.075548   -0.159754    1.799530
     24          1           0       -1.235973    2.051489    0.609967
     25          1           0       -1.862622   -1.880926    0.110427
     26          1           0       -3.200199    0.871012    0.080327
     27          1           0       -3.572671   -0.497298   -0.967368
     28          1           0       -3.904365   -0.609235    0.768756
     29          1           0       -1.362448    0.463435    2.023253
     30          1           0       -0.398816   -1.017569    1.964361
     31          1           0       -2.112701   -1.084935    2.383324
 ---------------------------------------------------------------------
 Rotational constants (GHZ):      1.6435598      0.7519855      0.6749465
 Standard basis: 6-31+G(d,p) (6D, 7F)
 There are   309 symmetry adapted basis functions of A   symmetry.
 Integral buffers will be    131072 words long.
 Raffenetti 2 integral format.
 Two-electron integral symmetry is turned on.
   309 basis functions,   492 primitive gaussians,   309 cartesian basis functions
    44 alpha electrons       44 beta electrons
       nuclear repulsion energy       697.6738397783 Hartrees.
 NAtoms=   31 NActive=   31 NUniq=   31 SFac= 1.00D+00 NAtFMM=   60 NAOKFM=F Big=F
 ------------------------------------------------------------------------------
 Polarizable Continuum Model (PCM)
 =================================
 Model                : PCM.
 Atomic radii         : UFF (Universal Force Field).
 Polarization charges : Total charges.
 Charge compensation  : None.
 Solution method      : Matrix inversion.
 Cavity type          : Scaled VdW (van der Waals Surface) (Alpha=1.100).
 Cavity algorithm     : GePol (No added spheres)
                        Default sphere list used, NSphG=   31.
                        Lebedev-Laikov grids with approx.  5.0 points / Ang**2.
                        Smoothing algorithm: Karplus/York (Gamma=1.0000).
                        Polarization charges: spherical gaussians, with
                                              point-specific exponents (IZeta= 3).
                        Self-potential: point-specific (ISelfS= 7).
                        Self-field    : sphere-specific E.n sum rule (ISelfD= 2).
 Solvent              : Benzene, Eps=   2.270600 Eps(inf)=   2.253301
 ------------------------------------------------------------------------------
 One-electron integrals computed using PRISM.
 NBasis=   309 RedAO= T  NBF=   309
 NBsUse=   309 1.00D-06 NBFU=   309
 Harris functional with IExCor=  908 diagonalized for initial guess.
 ExpMin= 4.38D-02 ExpMax= 5.48D+03 ExpMxC= 8.25D+02 IAcc=2 IRadAn=         4 AccDes= 0.00D+00
 HarFok:  IExCor=  908 AccDes= 0.00D+00 IRadAn=         4 IDoV= 1
 ScaDFX=  1.000000  1.000000  1.000000  1.000000
 FoFCou: FMM=F IPFlag=           0 FMFlag=      100000 FMFlg1=           0
         NFxFlg=           0 DoJE=T BraDBF=F KetDBF=T FulRan=T
         Omega=  0.000000  0.000000  1.000000  0.000000  0.000000 ICntrl=     500 IOpCl=  0
         NMat0=    1 NMatS0=    1 NMatT0=    0 NMatD0=    1 NMtDS0=    0 NMtDT0=    0
         I1Cent=           4 NGrid=           0.
 Petite list used in FoFCou.
 Initial guess orbital symmetries:
       Occupied  (A) (A) (A) (A) (A) (A) (A) (A) (A) (A) (A) (A)
                 (A) (A) (A) (A) (A) (A) (A) (A) (A) (A) (A) (A)
                 (A) (A) (A) (A) (A) (A) (A) (A) (A) (A) (A) (A)
                 (A) (A) (A) (A) (A) (A) (A) (A)
       Virtual   (A) (A) (A) (A) (A) (A) (A) (A) (A) (A) (A) (A)
                 (A) (A) (A) (A) (A) (A) (A) (A) (A) (A) (A) (A)
                 (A) (A) (A) (A) (A) (A) (A) (A) (A) (A) (A) (A)
                 (A) (A) (A) (A) (A) (A) (A) (A) (A) (A) (A) (A)
                 (A) (A) (A) (A) (A) (A) (A) (A) (A) (A) (A) (A)
                 (A) (A) (A) (A) (A) (A) (A) (A) (A) (A) (A) (A)
                 (A) (A) (A) (A) (A) (A) (A) (A) (A) (A) (A) (A)
                 (A) (A) (A) (A) (A) (A) (A) (A) (A) (A) (A) (A)
                 (A) (A) (A) (A) (A) (A) (A) (A) (A) (A) (A) (A)
                 (A) (A) (A) (A) (A) (A) (A) (A) (A) (A) (A) (A)
                 (A) (A) (A) (A) (A) (A) (A) (A) (A) (A) (A) (A)
                 (A) (A) (A) (A) (A) (A) (A) (A) (A) (A) (A) (A)
                 (A) (A) (A) (A) (A) (A) (A) (A) (A) (A) (A) (A)
                 (A) (A) (A) (A) (A) (A) (A) (A) (A) (A) (A) (A)
                 (A) (A) (A) (A) (A) (A) (A) (A) (A) (A) (A) (A)
                 (A) (A) (A) (A) (A) (A) (A) (A) (A) (A) (A) (A)
                 (A) (A) (A) (A) (A) (A) (A) (A) (A) (A) (A) (A)
                 (A) (A) (A) (A) (A) (A) (A) (A) (A) (A) (A) (A)
                 (A) (A) (A) (A) (A) (A) (A) (A) (A) (A) (A) (A)
                 (A) (A) (A) (A) (A) (A) (A) (A) (A) (A) (A) (A)
                 (A) (A) (A) (A) (A) (A) (A) (A) (A) (A) (A) (A)
                 (A) (A) (A) (A) (A) (A) (A) (A) (A) (A) (A) (A)
                 (A)
 The electronic state of the initial guess is 1-A.
 Requested convergence on RMS density matrix=1.00D-08 within 128 cycles.
 Requested convergence on MAX density matrix=1.00D-06.
 Requested convergence on             energy=1.00D-06.
 No special actions if energy rises.
 Error on total polarization charges =  0.00929
 SCF Done:  E(RmPW1PW91) =  -468.273677164     A.U. after   12 cycles
             Convg  =    0.5702D-08             -V/T =  2.0099
 Range of M.O.s used for correlation:     1   309
 NBasis=   309 NAE=    44 NBE=    44 NFC=     0 NFV=     0
 NROrb=    309 NOA=    44 NOB=    44 NVA=   265 NVB=   265

 **** Warning!!: The largest alpha MO coefficient is  0.69196675D+02

 NEqPCM:  Using equilibrium solvation (IEInf=0, Eps=   2.2706, EpsInf=   2.2533)
          Differentiating once with respect to magnetic field using GIAOs.
          Electric field/nuclear overlap derivatives assumed to be zero.
 FoFCou: FMM=F IPFlag=           0 FMFlag=    10101102 FMFlg1=           0
         NFxFlg=    40000000 DoJE=F BraDBF=F KetDBF=T FulRan=T
         Omega=  0.000000  0.000000  1.000000  0.000000  0.000000 ICntrl=    6100 IOpCl=  0
         NMat0=    1 NMatS0=    1 NMatT0=    0 NMatD0=    1 NMtDS0=    0 NMtDT0=    0
         I1Cent=           7 NGrid=        1887.
 Symmetry not used in FoFCou.
          There are     3 degrees of freedom in the 1st order CPHF.  IDoFFX=0.
      3 vectors produced by pass  0 Test12= 3.89D-13 3.33D-08 XBig12= 2.84D+01 9.29D-01.
 AX will form     3 AO Fock derivatives at one time.
      3 vectors produced by pass  1 Test12= 3.89D-13 3.33D-08 XBig12= 6.71D-02 5.06D-02.
      3 vectors produced by pass  2 Test12= 3.89D-13 3.33D-08 XBig12= 1.44D-04 2.55D-03.
      3 vectors produced by pass  3 Test12= 3.89D-13 3.33D-08 XBig12= 6.97D-07 2.19D-04.
      3 vectors produced by pass  4 Test12= 3.89D-13 3.33D-08 XBig12= 2.26D-09 7.43D-06.
      3 vectors produced by pass  5 Test12= 3.89D-13 3.33D-08 XBig12= 6.15D-12 4.55D-07.
 Inverted reduced A of dimension    18 with in-core refinement.
 Calculating GIAO nuclear magnetic shielding tensors.
 SCF GIAO Magnetic shielding tensor (ppm):
      1  C    Isotropic =   160.8756   Anisotropy =     9.4707
   XX=   161.1759   YX=     2.3242   ZX=     2.7845
   XY=     4.4181   YY=   162.0867   ZY=     2.5910
   XZ=     5.3748   YZ=     0.8972   ZZ=   159.3643
   Eigenvalues:   155.9660   159.4714   167.1895
      2  C    Isotropic =   119.4712   Anisotropy =    51.6879
   XX=   130.7722   YX=   -18.9954   ZX=    -9.8171
   XY=   -15.7726   YY=   128.8856   ZY=    13.6925
   XZ=   -13.7563   YZ=    17.1837   ZZ=    98.7557
   Eigenvalues:    91.6752   112.8086   153.9298
      3  C    Isotropic =   159.8421   Anisotropy =    18.5357
   XX=   169.3651   YX=    -2.8167   ZX=    -5.7615
   XY=    -6.4252   YY=   161.0840   ZY=     3.5965
   XZ=     0.1552   YZ=     4.3355   ZZ=   149.0772
   Eigenvalues:   147.7922   159.5348   172.1993
      4  C    Isotropic =   151.6753   Anisotropy =    13.3182
   XX=   156.0090   YX=     2.3040   ZX=    -8.7147
   XY=    -0.6118   YY=   146.1424   ZY=    -3.1239
   XZ=    -1.6374   YZ=    -5.0373   ZZ=   152.8746
   Eigenvalues:   144.0033   150.4686   160.5541
      5  C    Isotropic =   163.9747   Anisotropy =    18.8177
   XX=   164.0982   YX=     6.1218   ZX=     5.2843
   XY=    11.1709   YY=   167.4923   ZY=     4.0942
   XZ=     0.9336   YZ=     5.1959   ZZ=   160.3336
   Eigenvalues:   156.8138   158.5905   176.5198
      6  C    Isotropic =   153.5064   Anisotropy =    34.2065
   XX=   167.8268   YX=   -17.2401   ZX=     5.7045
   XY=   -13.4477   YY=   147.3451   ZY=     8.0312
   XZ=     5.6203   YZ=     0.9583   ZZ=   145.3472
   Eigenvalues:   134.8601   149.3484   176.3107
      7  C    Isotropic =   172.9739   Anisotropy =    37.6549
   XX=   186.7713   YX=     1.1908   ZX=    15.4024
   XY=     0.0809   YY=   162.9109   ZY=     1.3292
   XZ=    20.5787   YZ=     2.0824   ZZ=   169.2397
   Eigenvalues:   157.7520   163.0925   198.0772
      8  O    Isotropic =   269.4730   Anisotropy =    27.3996
   XX=   269.6022   YX=   -13.6883   ZX=     7.1960
   XY=    -9.4659   YY=   251.6967   ZY=    -3.8726
   XZ=    -8.8289   YZ=    11.0021   ZZ=   287.1199
   Eigenvalues:   245.8184   274.8612   287.7393
      9  C    Isotropic =   156.7310   Anisotropy =    25.7153
   XX=   160.3121   YX=     5.2009   ZX=   -14.1975
   XY=     5.6064   YY=   156.8519   ZY=    -3.1047
   XZ=   -14.9193   YZ=    -2.9115   ZZ=   153.0290
   Eigenvalues:   141.5987   154.7198   173.8746
     10  C    Isotropic =   168.5040   Anisotropy =    38.2119
   XX=   191.5052   YX=    -7.3947   ZX=     4.8607
   XY=   -12.1645   YY=   148.5312   ZY=    -2.8633
   XZ=    -0.1226   YZ=    -5.0753   ZZ=   165.4755
   Eigenvalues:   145.8238   165.7095   193.9786
     11  C    Isotropic =   171.1974   Anisotropy =    20.3676
   XX=   171.5403   YX=     0.0940   ZX=     1.0452
   XY=     0.3170   YY=   159.4949   ZY=     1.7245
   XZ=     9.6602   YZ=     0.4471   ZZ=   182.5570
   Eigenvalues:   159.4437   169.3727   184.7758
     12  H    Isotropic =    30.0725   Anisotropy =     7.4135
   XX=    31.1620   YX=     1.3954   ZX=    -2.6483
   XY=     0.7715   YY=    26.6943   ZY=    -1.5706
   XZ=    -2.8386   YZ=    -1.6244   ZZ=    32.3612
   Eigenvalues:    26.2408    28.9619    35.0149
     13  H    Isotropic =    27.7210   Anisotropy =     4.6450
   XX=    26.5957   YX=    -0.3033   ZX=    -2.0382
   XY=    -0.8928   YY=    27.7353   ZY=    -1.7159
   XZ=    -0.9869   YZ=    -2.8734   ZZ=    28.8320
   Eigenvalues:    24.7693    27.5759    30.8176
     14  H    Isotropic =    29.9421   Anisotropy =     9.0278
   XX=    28.8159   YX=    -1.4448   ZX=    -1.7900
   XY=    -1.3821   YY=    26.0096   ZY=     2.4911
   XZ=    -1.3370   YZ=     1.7782   ZZ=    35.0010
   Eigenvalues:    25.2024    28.6634    35.9607
     15  H    Isotropic =    30.0234   Anisotropy =     8.5958
   XX=    29.6756   YX=     1.3977   ZX=     1.1825
   XY=     1.9109   YY=    33.7222   ZY=     3.0432
   XZ=     1.1097   YZ=     3.8217   ZZ=    26.6723
   Eigenvalues:    25.2297    29.0865    35.7539
     16  H    Isotropic =    29.6373   Anisotropy =     6.0552
   XX=    30.8705   YX=    -1.0365   ZX=     0.7387
   XY=    -0.2747   YY=    25.3880   ZY=    -0.1760
   XZ=     2.5314   YZ=    -0.5368   ZZ=    32.6534
   Eigenvalues:    25.3069    29.9310    33.6741
     17  H    Isotropic =    30.2594   Anisotropy =     9.4421
   XX=    31.9352   YX=    -3.8207   ZX=    -0.2440
   XY=    -4.0339   YY=    32.2782   ZY=     2.6277
   XZ=    -0.1731   YZ=     3.1325   ZZ=    26.5647
   Eigenvalues:    25.0355    29.1885    36.5541
     18  H    Isotropic =    30.3336   Anisotropy =     5.1321
   XX=    30.6179   YX=     0.1572   ZX=     0.2225
   XY=     0.2351   YY=    29.1190   ZY=    -3.6773
   XZ=    -0.7287   YZ=    -3.0508   ZZ=    31.2640
   Eigenvalues:    26.6606    30.5852    33.7550
     19  H    Isotropic =    29.8119   Anisotropy =     7.1948
   XX=    30.2023   YX=     1.7788   ZX=     0.6935
   XY=     1.6102   YY=    33.9392   ZY=    -0.0060
   XZ=     0.6364   YZ=     0.2985   ZZ=    25.2942
   Eigenvalues:    25.2049    29.6223    34.6084
     20  H    Isotropic =    30.4067   Anisotropy =     3.8292
   XX=    32.0505   YX=     1.1429   ZX=    -0.7464
   XY=     0.3644   YY=    27.5706   ZY=     1.0334
   XZ=    -1.4711   YZ=     0.4091   ZZ=    31.5989
   Eigenvalues:    27.2559    31.0046    32.9595
     21  H    Isotropic =    30.5142   Anisotropy =    10.7388
   XX=    36.0207   YX=    -4.1762   ZX=    -0.0358
   XY=    -3.5143   YY=    28.7272   ZY=     1.3474
   XZ=     0.8251   YZ=     0.5003   ZZ=    26.7948
   Eigenvalues:    25.9203    27.9489    37.6734
     22  H    Isotropic =    30.5585   Anisotropy =    10.5340
   XX=    32.9786   YX=     5.0883   ZX=     2.0856
   XY=     4.0908   YY=    31.9678   ZY=     0.4818
   XZ=     2.2220   YZ=     1.6124   ZZ=    26.7290
   Eigenvalues:    26.0154    28.0788    37.5811
     23  H    Isotropic =    30.9089   Anisotropy =     7.7468
   XX=    30.1281   YX=    -0.0533   ZX=     2.2893
   XY=     0.1440   YY=    27.3062   ZY=    -1.3566
   XZ=     1.3479   YZ=    -1.4788   ZZ=    35.2924
   Eigenvalues:    27.0164    29.6369    36.0735
     24  H    Isotropic =    31.0963   Anisotropy =    12.0003
   XX=    27.0515   YX=    -2.6409   ZX=    -4.7551
   XY=    -2.6842   YY=    29.3542   ZY=     0.8688
   XZ=    -5.0510   YZ=    -0.2151   ZZ=    36.8833
   Eigenvalues:    23.9856    30.2068    39.0965
     25  H    Isotropic =    29.7373   Anisotropy =     6.3967
   XX=    29.1274   YX=     1.6626   ZX=    -0.7676
   XY=     0.9611   YY=    33.5237   ZY=     1.4615
   XZ=    -0.5507   YZ=     0.8109   ZZ=    26.5608
   Eigenvalues:    26.1197    29.0905    34.0017
     26  H    Isotropic =    29.9343   Anisotropy =     5.7307
   XX=    32.0412   YX=    -1.6898   ZX=    -0.4592
   XY=    -0.7159   YY=    32.8795   ZY=    -0.5034
   XZ=    -0.1698   YZ=    -0.9833   ZZ=    24.8823
   Eigenvalues:    24.7885    31.2597    33.7548
     27  H    Isotropic =    30.4213   Anisotropy =     9.6400
   XX=    32.9935   YX=     0.8568   ZX=     5.0424
   XY=     0.5992   YY=    26.5032   ZY=     0.8904
   XZ=     3.4586   YZ=     1.5130   ZZ=    31.7673
   Eigenvalues:    26.2315    28.1844    36.8480
     28  H    Isotropic =    30.7368   Anisotropy =    10.6560
   XX=    36.0694   YX=     2.1567   ZX=    -3.8064
   XY=     1.3622   YY=    26.7860   ZY=    -1.0195
   XZ=    -2.7742   YZ=    -1.8467   ZZ=    29.3550
   Eigenvalues:    26.1349    28.2347    37.8408
     29  H    Isotropic =    30.8734   Anisotropy =     5.2806
   XX=    28.4402   YX=     1.2770   ZX=    -0.7463
   XY=     1.3583   YY=    31.8660   ZY=     1.6376
   XZ=    -1.1339   YZ=     2.9349   ZZ=    32.3140
   Eigenvalues:    27.3689    30.8575    34.3938
     30  H    Isotropic =    29.9976   Anisotropy =     6.8248
   XX=    33.2792   YX=    -2.0353   ZX=     0.3085
   XY=    -1.9184   YY=    25.9146   ZY=    -1.8649
   XZ=     1.9103   YZ=    -2.5307   ZZ=    30.7989
   Eigenvalues:    24.8099    30.6354    34.5474
     31  H    Isotropic =    30.4024   Anisotropy =    10.4409
   XX=    29.9169   YX=     2.4733   ZX=    -3.1213
   XY=     2.0372   YY=    27.5757   ZY=    -3.1874
   XZ=    -3.6889   YZ=    -3.4764   ZZ=    33.7147
   Eigenvalues:    25.9002    27.9441    37.3630
 End of Minotr Frequency-dependent properties file   721 does not exist.
 End of Minotr Frequency-dependent properties file   722 does not exist.

 **********************************************************************

            Population analysis using the SCF density.

 **********************************************************************

 Orbital symmetries:
       Occupied  (A) (A) (A) (A) (A) (A) (A) (A) (A) (A) (A) (A)
                 (A) (A) (A) (A) (A) (A) (A) (A) (A) (A) (A) (A)
                 (A) (A) (A) (A) (A) (A) (A) (A) (A) (A) (A) (A)
                 (A) (A) (A) (A) (A) (A) (A) (A)
       Virtual   (A) (A) (A) (A) (A) (A) (A) (A) (A) (A) (A) (A)
                 (A) (A) (A) (A) (A) (A) (A) (A) (A) (A) (A) (A)
                 (A) (A) (A) (A) (A) (A) (A) (A) (A) (A) (A) (A)
                 (A) (A) (A) (A) (A) (A) (A) (A) (A) (A) (A) (A)
                 (A) (A) (A) (A) (A) (A) (A) (A) (A) (A) (A) (A)
                 (A) (A) (A) (A) (A) (A) (A) (A) (A) (A) (A) (A)
                 (A) (A) (A) (A) (A) (A) (A) (A) (A) (A) (A) (A)
                 (A) (A) (A) (A) (A) (A) (A) (A) (A) (A) (A) (A)
                 (A) (A) (A) (A) (A) (A) (A) (A) (A) (A) (A) (A)
                 (A) (A) (A) (A) (A) (A) (A) (A) (A) (A) (A) (A)
                 (A) (A) (A) (A) (A) (A) (A) (A) (A) (A) (A) (A)
                 (A) (A) (A) (A) (A) (A) (A) (A) (A) (A) (A) (A)
                 (A) (A) (A) (A) (A) (A) (A) (A) (A) (A) (A) (A)
                 (A) (A) (A) (A) (A) (A) (A) (A) (A) (A) (A) (A)
                 (A) (A) (A) (A) (A) (A) (A) (A) (A) (A) (A) (A)
                 (A) (A) (A) (A) (A) (A) (A) (A) (A) (A) (A) (A)
                 (A) (A) (A) (A) (A) (A) (A) (A) (A) (A) (A) (A)
                 (A) (A) (A) (A) (A) (A) (A) (A) (A) (A) (A) (A)
                 (A) (A) (A) (A) (A) (A) (A) (A) (A) (A) (A) (A)
                 (A) (A) (A) (A) (A) (A) (A) (A) (A) (A) (A) (A)
                 (A) (A) (A) (A) (A) (A) (A) (A) (A) (A) (A) (A)
                 (A) (A) (A) (A) (A) (A) (A) (A) (A) (A) (A) (A)
                 (A)
 The electronic state is 1-A.
 Alpha  occ. eigenvalues --  -19.24461 -10.29530 -10.25490 -10.25282 -10.24848
 Alpha  occ. eigenvalues --  -10.24319 -10.24094 -10.24050 -10.23946 -10.23527
 Alpha  occ. eigenvalues --  -10.22937  -1.04982  -0.86031  -0.82119  -0.77121
 Alpha  occ. eigenvalues --   -0.75353  -0.70848  -0.69487  -0.63520  -0.62086
 Alpha  occ. eigenvalues --   -0.58532  -0.56372  -0.50817  -0.48343  -0.47615
 Alpha  occ. eigenvalues --   -0.46038  -0.45284  -0.43164  -0.43022  -0.42024
 Alpha  occ. eigenvalues --   -0.41549  -0.39776  -0.39405  -0.38297  -0.37538
 Alpha  occ. eigenvalues --   -0.37194  -0.35414  -0.34816  -0.33793  -0.33424
 Alpha  occ. eigenvalues --   -0.31937  -0.31255  -0.30212  -0.27420
 Alpha virt. eigenvalues --    0.00704   0.01427   0.02039   0.02395   0.03739
 Alpha virt. eigenvalues --    0.04402   0.04652   0.04838   0.05320   0.05892
 Alpha virt. eigenvalues --    0.07263   0.07867   0.08276   0.08643   0.08793
 Alpha virt. eigenvalues --    0.09235   0.10114   0.10455   0.11211   0.11560
 Alpha virt. eigenvalues --    0.12139   0.12904   0.13399   0.13985   0.14648
 Alpha virt. eigenvalues --    0.15097   0.15644   0.16455   0.16581   0.17368
 Alpha virt. eigenvalues --    0.17706   0.18149   0.18573   0.19111   0.19661
 Alpha virt. eigenvalues --    0.20097   0.20155   0.20734   0.21216   0.21777
 Alpha virt. eigenvalues --    0.22339   0.22896   0.23140   0.24600   0.25322
 Alpha virt. eigenvalues --    0.25449   0.25784   0.26142   0.26800   0.27131
 Alpha virt. eigenvalues --    0.27382   0.28420   0.28608   0.28965   0.29736
 Alpha virt. eigenvalues --    0.30413   0.31101   0.31989   0.32776   0.34388
 Alpha virt. eigenvalues --    0.35037   0.35324   0.36024   0.36419   0.37162
 Alpha virt. eigenvalues --    0.38067   0.38572   0.39592   0.40630   0.41546
 Alpha virt. eigenvalues --    0.44064   0.45172   0.47409   0.49317   0.51814
 Alpha virt. eigenvalues --    0.62514   0.64005   0.64574   0.64830   0.66904
 Alpha virt. eigenvalues --    0.67853   0.68866   0.69623   0.72225   0.72763
 Alpha virt. eigenvalues --    0.74004   0.74391   0.74803   0.75286   0.77855
 Alpha virt. eigenvalues --    0.78595   0.78786   0.81356   0.81942   0.83641
 Alpha virt. eigenvalues --    0.84980   0.87803   0.88518   0.90237   0.91740
 Alpha virt. eigenvalues --    0.93868   0.96648   0.98365   0.99517   1.00644
 Alpha virt. eigenvalues --    1.01099   1.01890   1.02533   1.03923   1.04089
 Alpha virt. eigenvalues --    1.05457   1.08004   1.09128   1.10415   1.11774
 Alpha virt. eigenvalues --    1.12601   1.13485   1.14888   1.16191   1.16273
 Alpha virt. eigenvalues --    1.17065   1.18019   1.18424   1.20722   1.24121
 Alpha virt. eigenvalues --    1.25218   1.26097   1.27979   1.31154   1.33516
 Alpha virt. eigenvalues --    1.34883   1.39463   1.42209   1.43862   1.45829
 Alpha virt. eigenvalues --    1.47735   1.48786   1.49906   1.53160   1.56594
 Alpha virt. eigenvalues --    1.58561   1.59420   1.63473   1.65502   1.67148
 Alpha virt. eigenvalues --    1.71294   1.73016   1.74729   1.77205   1.78666
 Alpha virt. eigenvalues --    1.80781   1.83356   1.85189   1.87269   1.87947
 Alpha virt. eigenvalues --    1.88777   1.90663   1.91796   1.93553   1.94971
 Alpha virt. eigenvalues --    1.95381   1.97381   1.99442   2.00345   2.03407
 Alpha virt. eigenvalues --    2.04801   2.05928   2.06057   2.07117   2.08553
 Alpha virt. eigenvalues --    2.10375   2.11104   2.12973   2.13511   2.15568
 Alpha virt. eigenvalues --    2.16626   2.17312   2.17726   2.19371   2.19969
 Alpha virt. eigenvalues --    2.21823   2.22540   2.23096   2.24533   2.29828
 Alpha virt. eigenvalues --    2.32642   2.33438   2.35114   2.36222   2.38056
 Alpha virt. eigenvalues --    2.38905   2.40179   2.42615   2.44484   2.46040
 Alpha virt. eigenvalues --    2.47558   2.49279   2.51631   2.54916   2.55541
 Alpha virt. eigenvalues --    2.58631   2.60510   2.62108   2.63928   2.64744
 Alpha virt. eigenvalues --    2.65177   2.65801   2.68240   2.71071   2.71759
 Alpha virt. eigenvalues --    2.72978   2.75983   2.76666   2.77255   2.78205
 Alpha virt. eigenvalues --    2.79193   2.79820   2.83410   2.84067   2.85434
 Alpha virt. eigenvalues --    2.86234   2.88240   2.90660   2.91016   2.92315
 Alpha virt. eigenvalues --    2.92531   2.93095   2.94636   2.96908   2.99365
 Alpha virt. eigenvalues --    3.00369   3.04093   3.05416   3.17224   3.29161
 Alpha virt. eigenvalues --    3.29393   3.30994   3.34889   3.37989   3.38713
 Alpha virt. eigenvalues --    3.41021   3.42896   3.46982   3.48886   3.50156
 Alpha virt. eigenvalues --    3.51749   3.53237   3.53672   3.54404   3.57037
 Alpha virt. eigenvalues --    3.58484   3.59309   3.62583   3.64614   4.36968
 Alpha virt. eigenvalues --    4.42358   4.47760   4.50883   4.55842   4.61311
 Alpha virt. eigenvalues --    4.64291   4.75667   4.83538   4.87923   4.92251
          Condensed to atoms (all electrons):
              1          2          3          4          5          6
     1  C    6.880527  -0.126405   0.137595   0.220215  -0.226355  -0.283666
     2  C   -0.126405   6.973607   0.421584  -1.097173  -0.009185  -0.481086
     3  C    0.137595   0.421584   6.379181  -0.475903  -0.012802  -0.142213
     4  C    0.220215  -1.097173  -0.475903   7.949091  -0.453227   0.003351
     5  C   -0.226355  -0.009185  -0.012802  -0.453227   6.126959  -0.221148
     6  C   -0.283666  -0.481086  -0.142213   0.003351  -0.221148   6.739510
     7  C   -0.510494  -0.151196  -0.183652   0.049099   0.153439   0.139538
     8  O    0.019186   0.363387   0.070669  -0.197663  -0.010370  -0.096478
     9  C   -0.171174   0.352310  -0.067032  -1.045232   0.223958  -0.064875
    10  C    0.028723  -0.150987  -0.116983   0.325166  -0.026349   0.064208
    11  C    0.094792  -0.156564   0.046224   0.255607  -0.045976  -0.054301
    12  H    0.236986  -0.032098  -0.056673   0.029902   0.009737   0.019334
    13  H    0.004226   0.398363  -0.055855  -0.011860   0.007302  -0.045812
    14  H   -0.000176  -0.049910   0.335324   0.013846  -0.022637   0.008287
    15  H    0.032658   0.019370   0.429723  -0.092870  -0.046986  -0.021650
    16  H   -0.012579  -0.008318  -0.043346   0.286127   0.033778   0.058013
    17  H   -0.014573   0.005457   0.006770   0.038221   0.287393   0.034191
    18  H   -0.098688  -0.024486  -0.120586   0.056024   0.453747   0.016654
    19  H    0.017266  -0.001131   0.010008   0.033595   0.027629   0.273788
    20  H   -0.131261  -0.060780  -0.036474   0.036699   0.014989   0.467936
    21  H   -0.103249  -0.005570  -0.000455   0.002526   0.005544   0.025035
    22  H   -0.098463  -0.000039  -0.005735   0.002254   0.025312  -0.000279
    23  H   -0.129288  -0.000888  -0.003877   0.003932   0.003194   0.004516
    24  H    0.002249   0.082325  -0.016328  -0.078355   0.003717  -0.045886
    25  H    0.005040   0.021831  -0.014639  -0.051010   0.012959  -0.025836
    26  H    0.001875   0.011537  -0.001071  -0.007182   0.000970  -0.017775
    27  H   -0.000092   0.015892  -0.005091  -0.006171   0.001044   0.003872
    28  H   -0.000504   0.002256  -0.004633   0.038035   0.000700   0.001167
    29  H    0.004080   0.030009  -0.002244  -0.025203   0.004211  -0.036580
    30  H    0.002564  -0.022477   0.025165   0.004228  -0.020256   0.012523
    31  H   -0.000904  -0.000197   0.002687   0.028147  -0.000470   0.001708
              7          8          9         10         11         12
     1  C   -0.510494   0.019186  -0.171174   0.028723   0.094792   0.236986
     2  C   -0.151196   0.363387   0.352310  -0.150987  -0.156564  -0.032098
     3  C   -0.183652   0.070669  -0.067032  -0.116983   0.046224  -0.056673
     4  C    0.049099  -0.197663  -1.045232   0.325166   0.255607   0.029902
     5  C    0.153439  -0.010370   0.223958  -0.026349  -0.045976   0.009737
     6  C    0.139538  -0.096478  -0.064875   0.064208  -0.054301   0.019334
     7  C    5.749333  -0.009458   0.055651   0.003382  -0.020337   0.062487
     8  O   -0.009458   8.186298   0.087854  -0.073251  -0.034536  -0.001173
     9  C    0.055651   0.087854   7.516434  -0.437635  -0.367788   0.000900
    10  C    0.003382  -0.073251  -0.437635   5.637788   0.047905   0.000165
    11  C   -0.020337  -0.034536  -0.367788   0.047905   5.524319  -0.001872
    12  H    0.062487  -0.001173   0.000900   0.000165  -0.001872   0.569726
    13  H    0.015505  -0.072979   0.044808  -0.001723  -0.009519   0.002718
    14  H    0.012349  -0.000890   0.021154  -0.001361  -0.001234   0.003256
    15  H   -0.003436  -0.000314  -0.010461   0.001148   0.013704   0.000004
    16  H    0.001192  -0.002337  -0.031458   0.009437  -0.006094  -0.000099
    17  H   -0.022843   0.000088  -0.005944   0.000112   0.000395  -0.004701
    18  H    0.023497  -0.000652   0.020206   0.002065  -0.021097   0.005191
    19  H   -0.029152   0.002864  -0.009221  -0.001452   0.007860  -0.005274
    20  H    0.031982  -0.014861   0.009991   0.001273  -0.015298   0.005025
    21  H    0.434516   0.000028   0.000830   0.000041  -0.000369  -0.003667
    22  H    0.436351  -0.000010  -0.000492  -0.000062   0.000388  -0.003619
    23  H    0.471370  -0.000071  -0.000549  -0.000020   0.000419   0.004794
    24  H    0.003176   0.229401   0.081848  -0.004029  -0.024207   0.000013
    25  H   -0.000274  -0.000013   0.304714   0.001211   0.012301  -0.000001
    26  H   -0.000028   0.001237  -0.070681   0.443754  -0.006294   0.000000
    27  H    0.000069  -0.000518  -0.091629   0.438623   0.004293   0.000000
    28  H    0.000033   0.000009  -0.131301   0.449864  -0.000807   0.000000
    29  H    0.000412  -0.001480  -0.057890   0.000434   0.422650  -0.000001
    30  H   -0.002951  -0.000052  -0.062169  -0.001059   0.424044  -0.000008
    31  H   -0.000324   0.000129  -0.120452   0.003946   0.446951   0.000000
             13         14         15         16         17         18
     1  C    0.004226  -0.000176   0.032658  -0.012579  -0.014573  -0.098688
     2  C    0.398363  -0.049910   0.019370  -0.008318   0.005457  -0.024486
     3  C   -0.055855   0.335324   0.429723  -0.043346   0.006770  -0.120586
     4  C   -0.011860   0.013846  -0.092870   0.286127   0.038221   0.056024
     5  C    0.007302  -0.022637  -0.046986   0.033778   0.287393   0.453747
     6  C   -0.045812   0.008287  -0.021650   0.058013   0.034191   0.016654
     7  C    0.015505   0.012349  -0.003436   0.001192  -0.022843   0.023497
     8  O   -0.072979  -0.000890  -0.000314  -0.002337   0.000088  -0.000652
     9  C    0.044808   0.021154  -0.010461  -0.031458  -0.005944   0.020206
    10  C   -0.001723  -0.001361   0.001148   0.009437   0.000112   0.002065
    11  C   -0.009519  -0.001234   0.013704  -0.006094   0.000395  -0.021097
    12  H    0.002718   0.003256   0.000004  -0.000099  -0.004701   0.005191
    13  H    0.568302   0.002756  -0.000111  -0.009996  -0.000035   0.000077
    14  H    0.002756   0.550874  -0.027475  -0.008276  -0.005158   0.004829
    15  H   -0.000111  -0.027475   0.553390  -0.001544  -0.002450  -0.003451
    16  H   -0.009996  -0.008276  -0.001544   0.577599  -0.000129  -0.000144
    17  H   -0.000035  -0.005158  -0.002450  -0.000129   0.552701  -0.030155
    18  H    0.000077   0.004829  -0.003451  -0.000144  -0.030155   0.558593
    19  H   -0.007069  -0.000050   0.000010  -0.000137  -0.000125  -0.000064
    20  H    0.004706   0.000074  -0.000018  -0.000184  -0.000021   0.002404
    21  H    0.000003   0.000001  -0.000002   0.000000   0.002677  -0.000237
    22  H    0.000000   0.000001   0.000002   0.000000   0.000010  -0.000004
    23  H    0.000000   0.000000   0.000000   0.000000  -0.000146   0.003277
    24  H    0.007597   0.000004   0.000000  -0.000152  -0.000001   0.000011
    25  H   -0.000140   0.000284   0.005301  -0.000932  -0.000042   0.000245
    26  H   -0.000119   0.000005  -0.000001  -0.000201   0.000000   0.000001
    27  H    0.000008  -0.000012   0.000043   0.003028   0.000000  -0.000001
    28  H    0.000003   0.000002  -0.000011   0.000321   0.000000   0.000000
    29  H   -0.000035   0.000003   0.000006   0.000012  -0.000002   0.000046
    30  H   -0.000016  -0.000054   0.000118  -0.000067   0.000094   0.001313
    31  H    0.000003   0.000003  -0.000013  -0.000106  -0.000001   0.000126
             19         20         21         22         23         24
     1  C    0.017266  -0.131261  -0.103249  -0.098463  -0.129288   0.002249
     2  C   -0.001131  -0.060780  -0.005570  -0.000039  -0.000888   0.082325
     3  C    0.010008  -0.036474  -0.000455  -0.005735  -0.003877  -0.016328
     4  C    0.033595   0.036699   0.002526   0.002254   0.003932  -0.078355
     5  C    0.027629   0.014989   0.005544   0.025312   0.003194   0.003717
     6  C    0.273788   0.467936   0.025035  -0.000279   0.004516  -0.045886
     7  C   -0.029152   0.031982   0.434516   0.436351   0.471370   0.003176
     8  O    0.002864  -0.014861   0.000028  -0.000010  -0.000071   0.229401
     9  C   -0.009221   0.009991   0.000830  -0.000492  -0.000549   0.081848
    10  C   -0.001452   0.001273   0.000041  -0.000062  -0.000020  -0.004029
    11  C    0.007860  -0.015298  -0.000369   0.000388   0.000419  -0.024207
    12  H   -0.005274   0.005025  -0.003667  -0.003619   0.004794   0.000013
    13  H   -0.007069   0.004706   0.000003   0.000000   0.000000   0.007597
    14  H   -0.000050   0.000074   0.000001   0.000001   0.000000   0.000004
    15  H    0.000010  -0.000018  -0.000002   0.000002   0.000000   0.000000
    16  H   -0.000137  -0.000184   0.000000   0.000000   0.000000  -0.000152
    17  H   -0.000125  -0.000021   0.002677   0.000010  -0.000146  -0.000001
    18  H   -0.000064   0.002404  -0.000237  -0.000004   0.003277   0.000011
    19  H    0.539571  -0.032375  -0.000006   0.002637  -0.000191  -0.001478
    20  H   -0.032375   0.552162   0.000006  -0.000202   0.003377   0.004478
    21  H   -0.000006   0.000006   0.531964  -0.025265  -0.027915   0.000000
    22  H    0.002637  -0.000202  -0.025265   0.530842  -0.028023   0.000000
    23  H   -0.000191   0.003377  -0.027915  -0.028023   0.534652   0.000001
    24  H   -0.001478   0.004478   0.000000   0.000000   0.000001   0.404256
    25  H    0.000005  -0.000044   0.000000   0.000000   0.000000  -0.000009
    26  H    0.000004   0.000006   0.000000   0.000000   0.000000  -0.000840
    27  H    0.000000  -0.000001   0.000000   0.000000   0.000000   0.000035
    28  H    0.000000   0.000001   0.000000   0.000000   0.000000   0.000011
    29  H    0.000113   0.000242   0.000000   0.000000  -0.000001   0.003989
    30  H    0.000050  -0.000865   0.000002   0.000001   0.000029  -0.000097
    31  H   -0.000003   0.000212   0.000000   0.000000   0.000001  -0.000015
             25         26         27         28         29         30
     1  C    0.005040   0.001875  -0.000092  -0.000504   0.004080   0.002564
     2  C    0.021831   0.011537   0.015892   0.002256   0.030009  -0.022477
     3  C   -0.014639  -0.001071  -0.005091  -0.004633  -0.002244   0.025165
     4  C   -0.051010  -0.007182  -0.006171   0.038035  -0.025203   0.004228
     5  C    0.012959   0.000970   0.001044   0.000700   0.004211  -0.020256
     6  C   -0.025836  -0.017775   0.003872   0.001167  -0.036580   0.012523
     7  C   -0.000274  -0.000028   0.000069   0.000033   0.000412  -0.002951
     8  O   -0.000013   0.001237  -0.000518   0.000009  -0.001480  -0.000052
     9  C    0.304714  -0.070681  -0.091629  -0.131301  -0.057890  -0.062169
    10  C    0.001211   0.443754   0.438623   0.449864   0.000434  -0.001059
    11  C    0.012301  -0.006294   0.004293  -0.000807   0.422650   0.424044
    12  H   -0.000001   0.000000   0.000000   0.000000  -0.000001  -0.000008
    13  H   -0.000140  -0.000119   0.000008   0.000003  -0.000035  -0.000016
    14  H    0.000284   0.000005  -0.000012   0.000002   0.000003  -0.000054
    15  H    0.005301  -0.000001   0.000043  -0.000011   0.000006   0.000118
    16  H   -0.000932  -0.000201   0.003028   0.000321   0.000012  -0.000067
    17  H   -0.000042   0.000000   0.000000   0.000000  -0.000002   0.000094
    18  H    0.000245   0.000001  -0.000001   0.000000   0.000046   0.001313
    19  H    0.000005   0.000004   0.000000   0.000000   0.000113   0.000050
    20  H   -0.000044   0.000006  -0.000001   0.000001   0.000242  -0.000865
    21  H    0.000000   0.000000   0.000000   0.000000   0.000000   0.000002
    22  H    0.000000   0.000000   0.000000   0.000000   0.000000   0.000001
    23  H    0.000000   0.000000   0.000000   0.000000  -0.000001   0.000029
    24  H   -0.000009  -0.000840   0.000035   0.000011   0.003989  -0.000097
    25  H    0.586940   0.004840  -0.004316  -0.003527   0.005331  -0.003458
    26  H    0.004840   0.514994  -0.026267  -0.027835   0.002527  -0.000027
    27  H   -0.004316  -0.026267   0.530903  -0.025973   0.000010  -0.000138
    28  H   -0.003527  -0.027835  -0.025973   0.543258  -0.000330   0.000085
    29  H    0.005331   0.002527   0.000010  -0.000330   0.572680  -0.030222
    30  H   -0.003458  -0.000027  -0.000138   0.000085  -0.030222   0.539303
    31  H   -0.004397  -0.000087   0.000090   0.002925  -0.028850  -0.025954
             31
     1  C   -0.000904
     2  C   -0.000197
     3  C    0.002687
     4  C    0.028147
     5  C   -0.000470
     6  C    0.001708
     7  C   -0.000324
     8  O    0.000129
     9  C   -0.120452
    10  C    0.003946
    11  C    0.446951
    12  H    0.000000
    13  H    0.000003
    14  H    0.000003
    15  H   -0.000013
    16  H   -0.000106
    17  H   -0.000001
    18  H    0.000126
    19  H   -0.000003
    20  H    0.000212
    21  H    0.000000
    22  H    0.000000
    23  H    0.000001
    24  H   -0.000015
    25  H   -0.004397
    26  H   -0.000087
    27  H    0.000090
    28  H    0.002925
    29  H   -0.028850
    30  H   -0.025954
    31  H    0.526513
 Mulliken atomic charges:
              1
     1  C    0.219889
     2  C   -0.319437
     3  C   -0.499338
     4  C    0.165783
     5  C   -0.300823
     6  C   -0.336044
     7  C   -0.709238
     8  O   -0.444047
     9  C    0.025327
    10  C   -0.644334
    11  C   -0.535558
    12  H    0.158946
    13  H    0.158891
    14  H    0.164182
    15  H    0.155312
    16  H    0.156594
    17  H    0.158220
    18  H    0.151259
    19  H    0.172328
    20  H    0.156824
    21  H    0.163564
    22  H    0.164396
    23  H    0.161405
    24  H    0.348285
    25  H    0.147635
    26  H    0.176659
    27  H    0.162300
    28  H    0.156252
    29  H    0.136083
    30  H    0.160353
    31  H    0.168331
 Sum of Mulliken atomic charges =   0.00000
 Mulliken charges with hydrogens summed into heavy atoms:
              1
     1  C    0.378836
     2  C   -0.160546
     3  C   -0.179843
     4  C    0.322376
     5  C    0.008656
     6  C   -0.006893
     7  C   -0.219872
     8  O   -0.095762
     9  C    0.172963
    10  C   -0.149123
    11  C   -0.070791
 Sum of Mulliken charges with hydrogens summed into heavy atoms =   0.00000
 Electronic spatial extent (au):  <R**2>=           2025.6382
 Charge=              0.0000 electrons
 Dipole moment (field-independent basis, Debye):
    X=              0.8830    Y=             -1.7026    Z=              0.9062  Tot=              2.1212
 Quadrupole moment (field-independent basis, Debye-Ang):
   XX=            -72.7386   YY=            -76.7957   ZZ=            -70.4576
   XY=              2.8207   XZ=             -2.8489   YZ=              3.0449
 Traceless Quadrupole moment (field-independent basis, Debye-Ang):
   XX=              0.5921   YY=             -3.4651   ZZ=              2.8730
   XY=              2.8207   XZ=             -2.8489   YZ=              3.0449
 Octapole moment (field-independent basis, Debye-Ang**2):
  XXX=              0.4119  YYY=             -7.6606  ZZZ=             -4.3809  XYY=              5.0265
  XXY=             -1.2111  XXZ=              0.5581  XZZ=             -3.0646  YZZ=              3.7552
  YYZ=              7.4682  XYZ=             -4.7665
 Hexadecapole moment (field-independent basis, Debye-Ang**3):
 XXXX=          -1762.9537 YYYY=           -650.3587 ZZZZ=           -450.6930 XXXY=             -1.6683
 XXXZ=            -17.0481 YYYX=             11.2371 YYYZ=             19.5815 ZZZX=             -1.3160
 ZZZY=             -5.7007 XXYY=           -389.1438 XXZZ=           -363.2213 YYZZ=           -174.8046
 XXYZ=              6.2225 YYXZ=            -15.2082 ZZXY=             -1.4982
 N-N= 6.976738397783D+02 E-N=-2.480470501959D+03  KE= 4.636904266629D+02
 1\1\GINC-COMPUTE-10-6\SP\RmPW1PW91\6-31+G(d,p)\C10H20O1\ASAROTTI.IQUIR
 \19-Sep-2024\0\\# mPW1PW91/6-31+G** nmr scrf=(pcm,solvent=benzene)\\co
 mment\\0,1\C,0,2.168027,0.077402,-0.170706\C,0,-0.129418,1.092348,-0.6
 84782\C,0,0.31747,-1.331722,-1.200451\C,0,-0.790696,-0.304243,-0.84853
 7\C,0,1.534131,-1.32096,-0.262873\C,0,1.103115,1.113141,0.233857\C,0,3
 .372852,0.104615,0.776389\O,0,-1.052763,2.129955,-0.338658\C,0,-1.7845
 12,-0.793281,0.25809\C,0,-3.19717,-0.221663,0.025055\C,0,-1.379921,-0.
 594544,1.731233\H,0,2.523982,0.344239,-1.179137\H,0,0.21665,1.379219,-
 1.686983\H,0,0.674641,-1.111457,-2.217438\H,0,-0.118428,-2.338135,-1.2
 45803\H,0,-1.415698,-0.221999,-1.748406\H,0,2.279795,-2.042381,-0.6236
 46\H,0,1.247948,-1.657129,0.743222\H,0,1.527058,2.125249,0.206835\H,0,
 0.802823,0.928603,1.274595\H,0,4.143043,-0.608856,0.459483\H,0,3.83127
 4,1.100222,0.810321\H,0,3.075548,-0.159754,1.79953\H,0,-1.235973,2.051
 489,0.609967\H,0,-1.862622,-1.880926,0.110427\H,0,-3.200199,0.871012,0
 .080327\H,0,-3.572671,-0.497298,-0.967368\H,0,-3.904365,-0.609235,0.76
 8756\H,0,-1.362448,0.463435,2.023253\H,0,-0.398816,-1.017569,1.964361\
 H,0,-2.112701,-1.084935,2.383324\\Version=AM64L-G09RevC.01\State=1-A\H
 F=-468.2736772\RMSD=5.702e-09\Dipole=0.3473984,-0.6698358,0.3565173\Qu
 adrupole=0.4401748,-2.5762004,2.1360255,2.0971344,-2.1180635,2.2637807
 \PG=C01 [X(C10H20O1)]\\@


 AND ALL THIS SCIENCE I DON'T UNDERSTAND
 IT'S JUST MY JOB FIVE DAYS A WEEK

                           -- ELTON JOHN, "ROCKET MAN"
 Job cpu time:  0 days  0 hours 13 minutes 40.6 seconds.
 File lengths (MBytes):  RWF=    119 Int=      0 D2E=      0 Chk=      7 Scr=      1
 Normal termination of Gaussian 09 at Thu Sep 19 10:51:21 2024.
