 Entering Gaussian System, Link 0=g09
 Input=/home/asarotti.iquir/SCF2/04_Mentol06_OptB_NMR_benzene.gjc
 Output=/home/asarotti.iquir/SCF2/04_Mentol06_OptB_NMR_benzene.log
 Initial command:
 /opt/ohpc/pub/apps/software/Gaussian/09/AMD64.SSE4a-enabled/g09/l1.exe /local/asarotti.iquir/Gau-1841454.inp -scrdir=/local/asarotti.iquir/
 Entering Link 1 = /opt/ohpc/pub/apps/software/Gaussian/09/AMD64.SSE4a-enabled/g09/l1.exe PID=   1841455.
  
 Copyright (c) 1988,1990,1992,1993,1995,1998,2003,2009,2011,
            Gaussian, Inc.  All Rights Reserved.
  
 This is part of the Gaussian(R) 09 program.  It is based on
 the Gaussian(R) 03 system (copyright 2003, Gaussian, Inc.),
 the Gaussian(R) 98 system (copyright 1998, Gaussian, Inc.),
 the Gaussian(R) 94 system (copyright 1995, Gaussian, Inc.),
 the Gaussian 92(TM) system (copyright 1992, Gaussian, Inc.),
 the Gaussian 90(TM) system (copyright 1990, Gaussian, Inc.),
 the Gaussian 88(TM) system (copyright 1988, Gaussian, Inc.),
 the Gaussian 86(TM) system (copyright 1986, Carnegie Mellon
 University), and the Gaussian 82(TM) system (copyright 1983,
 Carnegie Mellon University). Gaussian is a federally registered
 trademark of Gaussian, Inc.
  
 This software contains proprietary and confidential information,
 including trade secrets, belonging to Gaussian, Inc.
  
 This software is provided under written license and may be
 used, copied, transmitted, or stored only in accord with that
 written license.
  
 The following legend is applicable only to US Government
 contracts under FAR:
  
                    RESTRICTED RIGHTS LEGEND
  
 Use, reproduction and disclosure by the US Government is
 subject to restrictions as set forth in subparagraphs (a)
 and (c) of the Commercial Computer Software - Restricted
 Rights clause in FAR 52.227-19.
  
 Gaussian, Inc.
 340 Quinnipiac St., Bldg. 40, Wallingford CT 06492
  
  
 ---------------------------------------------------------------
 Warning -- This program may not be used in any manner that
 competes with the business of Gaussian, Inc. or will provide
 assistance to any competitor of Gaussian, Inc.  The licensee
 of this program is prohibited from giving any competitor of
 Gaussian, Inc. access to this program.  By using this program,
 the user acknowledges that Gaussian, Inc. is engaged in the
 business of creating and licensing software in the field of
 computational chemistry and represents and warrants to the
 licensee that it is not a competitor of Gaussian, Inc. and that
 it will not use this program in any manner prohibited above.
 ---------------------------------------------------------------
  

 Cite this work as:
 Gaussian 09, Revision C.01,
 M. J. Frisch, G. W. Trucks, H. B. Schlegel, G. E. Scuseria, 
 M. A. Robb, J. R. Cheeseman, G. Scalmani, V. Barone, B. Mennucci, 
 G. A. Petersson, H. Nakatsuji, M. Caricato, X. Li, H. P. Hratchian, 
 A. F. Izmaylov, J. Bloino, G. Zheng, J. L. Sonnenberg, M. Hada, 
 M. Ehara, K. Toyota, R. Fukuda, J. Hasegawa, M. Ishida, T. Nakajima, 
 Y. Honda, O. Kitao, H. Nakai, T. Vreven, J. A. Montgomery, Jr., 
 J. E. Peralta, F. Ogliaro, M. Bearpark, J. J. Heyd, E. Brothers, 
 K. N. Kudin, V. N. Staroverov, T. Keith, R. Kobayashi, J. Normand, 
 K. Raghavachari, A. Rendell, J. C. Burant, S. S. Iyengar, J. Tomasi, 
 M. Cossi, N. Rega, J. M. Millam, M. Klene, J. E. Knox, J. B. Cross, 
 V. Bakken, C. Adamo, J. Jaramillo, R. Gomperts, R. E. Stratmann, 
 O. Yazyev, A. J. Austin, R. Cammi, C. Pomelli, J. W. Ochterski, 
 R. L. Martin, K. Morokuma, V. G. Zakrzewski, G. A. Voth, 
 P. Salvador, J. J. Dannenberg, S. Dapprich, A. D. Daniels, 
 O. Farkas, J. B. Foresman, J. V. Ortiz, J. Cioslowski, 
 and D. J. Fox, Gaussian, Inc., Wallingford CT, 2010.
 
 ******************************************
 Gaussian 09:  AM64L-G09RevC.01 23-Sep-2011
                19-Sep-2024 
 ******************************************
 %nprocshared=4
 Will use up to    4 processors via shared memory.
 %mem=100mw
 --------------------------------------------------
 # mPW1PW91/6-31+G** nmr scrf=(pcm,solvent=benzene)
 --------------------------------------------------
 1/38=1/1;
 2/12=2,17=6,18=5,40=1/2;
 3/5=1,6=6,7=111,11=2,16=1,25=1,30=1,70=2201,72=12,74=-7/1,2,8,3;
 4//1;
 5/5=2,38=5,53=12/2;
 8/6=1,10=90,11=11/1;
 10/13=100,45=16/2;
 6/7=2,8=2,9=2,10=2,28=1/1;
 99/9=1/99;
 -------
 comment
 -------
 Charge =  0 Multiplicity = 1
 Symbolic Z-Matrix:
 6                    -2.35701   0.26419  -0.44432 
 6                    -0.11891  -1.0798   -0.38795 
 6                    -0.15279   1.36471   0.29013 
 6                     0.69175   0.24047  -0.35089 
 6                    -1.50986   1.55236  -0.40885 
 6                    -1.50937  -0.89069  -1.02172 
 6                    -3.00868  -0.04918   0.91478 
 8                    -0.18528  -1.7187    0.8944 
 6                     2.08402   0.07302   0.31577 
 6                     2.93464   1.35081   0.21008 
 6                     2.86975  -1.11731  -0.26015 
 1                    -3.18603   0.43071  -1.14668 
 1                     0.42009  -1.80515  -1.00502 
 1                     0.39416   2.31243   0.25929 
 1                    -0.30373   1.15006   1.35996 
 1                     0.86173   0.52233  -1.40387 
 1                    -1.32377   1.88109  -1.44159 
 1                    -2.07228   2.36138   0.07625 
 1                    -1.35566  -0.6959   -2.09347 
 1                    -2.05223  -1.84119  -0.94925 
 1                    -3.73759   0.72722   1.17673 
 1                    -3.53441  -1.01018   0.88909 
 1                    -2.28964  -0.09523   1.74108 
 1                    -0.53172  -1.0794    1.53426 
 1                     1.91464  -0.13432   1.38194 
 1                     3.10198   1.62744  -0.83963 
 1                     2.4761    2.20816   0.71267 
 1                     3.918     1.19392   0.66855 
 1                     2.9895   -1.02626  -1.34841 
 1                     2.37761  -2.06973  -0.04557 
 1                     3.87425  -1.15915   0.17712 
 
                          Input orientation:                          
 ---------------------------------------------------------------------
 Center     Atomic      Atomic             Coordinates (Angstroms)
 Number     Number       Type             X           Y           Z
 ---------------------------------------------------------------------
      1          6           0       -2.357008    0.264187   -0.444324
      2          6           0       -0.118906   -1.079804   -0.387946
      3          6           0       -0.152792    1.364712    0.290134
      4          6           0        0.691754    0.240465   -0.350890
      5          6           0       -1.509859    1.552363   -0.408845
      6          6           0       -1.509374   -0.890690   -1.021721
      7          6           0       -3.008676   -0.049175    0.914777
      8          8           0       -0.185282   -1.718701    0.894403
      9          6           0        2.084018    0.073015    0.315770
     10          6           0        2.934638    1.350805    0.210076
     11          6           0        2.869748   -1.117314   -0.260146
     12          1           0       -3.186031    0.430709   -1.146684
     13          1           0        0.420092   -1.805150   -1.005023
     14          1           0        0.394161    2.312434    0.259292
     15          1           0       -0.303725    1.150058    1.359963
     16          1           0        0.861731    0.522325   -1.403870
     17          1           0       -1.323768    1.881094   -1.441594
     18          1           0       -2.072283    2.361383    0.076254
     19          1           0       -1.355658   -0.695903   -2.093470
     20          1           0       -2.052234   -1.841192   -0.949250
     21          1           0       -3.737586    0.727218    1.176726
     22          1           0       -3.534413   -1.010184    0.889092
     23          1           0       -2.289637   -0.095226    1.741079
     24          1           0       -0.531721   -1.079403    1.534261
     25          1           0        1.914635   -0.134324    1.381943
     26          1           0        3.101977    1.627442   -0.839625
     27          1           0        2.476104    2.208160    0.712670
     28          1           0        3.917996    1.193917    0.668551
     29          1           0        2.989502   -1.026257   -1.348412
     30          1           0        2.377610   -2.069728   -0.045566
     31          1           0        3.874246   -1.159154    0.177122
 ---------------------------------------------------------------------
                    Distance matrix (angstroms):
                    1          2          3          4          5
     1  C    0.000000
     2  C    2.611243   0.000000
     3  C    2.570827   2.537045   0.000000
     4  C    3.050286   1.549727   1.545348   0.000000
     5  C    1.542179   2.977161   1.537991   2.563501   0.000000
     6  C    1.544543   1.539752   2.940768   2.564077   2.518755
     7  C    1.539488   3.333175   3.247357   3.921605   2.561904
     8  O    3.231165   1.434229   3.142234   2.481588   3.762023
     9  C    4.509656   2.584005   2.583110   1.552699   3.953415
    10  C    5.441553   3.948369   3.088499   2.564774   4.491909
    11  C    5.409385   2.991620   3.949558   2.568162   5.131300
    12  H    1.099235   3.502083   3.483869   3.963168   2.147572
    13  H    3.508393   1.094271   3.471837   2.164770   3.918295
    14  H    3.501331   3.491337   1.094662   2.180353   2.156248
    15  H    2.873359   2.839301   1.101540   2.178384   2.178369
    16  H    3.368627   2.135549   2.146747   1.103224   2.770468
    17  H    2.162526   3.365826   2.153304   2.818444   1.099666
    18  H    2.179518   3.984085   2.173371   3.510078   1.098251
    19  H    2.155031   2.141436   3.372623   2.846975   2.813617
    20  H    2.186426   2.152332   3.927057   3.495826   3.478854
    21  H    2.179036   4.336862   3.747425   4.710583   2.856163
    22  H    2.188219   3.647103   4.175433   4.578446   3.514272
    23  H    2.215785   3.195968   2.966946   3.657556   2.818648
    24  H    3.008605   1.966036   2.768598   2.606288   3.414470
    25  H    4.662724   2.856874   2.777303   2.153744   4.216514
    26  H    5.640500   4.231700   3.455272   2.823427   4.632520
    27  H    5.336351   4.330836   2.793033   2.861274   4.192346
    28  H    6.440385   4.752112   4.091905   3.515248   5.545347
    29  H    5.573849   3.253853   4.274994   2.807006   5.270324
    30  H    5.293654   2.707354   4.279136   2.876165   5.325780
    31  H    6.421886   4.033716   4.753915   3.516530   6.056754
                    6          7          8          9         10
     6  C    0.000000
     7  C    2.589610   0.000000
     8  O    2.471913   3.280135   0.000000
     9  C    3.953489   5.129256   2.948692   0.000000
    10  C    5.127462   6.146505   4.429906   1.538659   0.000000
    11  C    4.450625   6.089108   3.320822   1.538159   2.513351
    12  H    2.138432   2.123997   4.217878   5.480888   6.336400
    13  H    2.135265   4.304129   1.995437   2.835604   4.214197
    14  H    3.940107   4.193585   4.121792   2.806030   2.716832
    15  H    3.360158   2.992175   2.908703   2.819872   3.442315
    16  H    2.786537   4.547833   3.376462   2.157088   2.754659
    17  H    2.809543   3.480997   4.439770   4.239161   4.598178
    18  H    3.478275   2.718592   4.569160   4.750667   5.109641
    19  H    1.100098   3.492889   3.367979   4.269314   5.282232
    20  H    1.096997   2.756937   2.626703   4.730015   6.033388
    21  H    3.523595   1.096683   4.322163   5.921174   6.770661
    22  H    2.786802   1.095718   3.423259   5.750547   6.919823
    23  H    2.979033   1.096318   2.789416   4.603115   5.632764
    24  H    2.743075   2.753259   0.968576   3.107230   4.435653
    25  H    4.251297   4.946159   2.675369   1.099275   2.149253
    26  H    5.257253   6.574880   5.000960   2.188018   1.098364
    27  H    5.338073   5.934578   4.747235   2.206831   1.094492
    28  H    6.054664   7.041640   5.036988   2.178153   1.096269
    29  H    4.512759   6.484971   3.948285   2.190389   2.842942
    30  H    4.177518   5.832407   2.752304   2.192740   3.475008
    31  H    5.522016   7.010763   4.160211   2.177701   2.680269
                   11         12         13         14         15
    11  C    0.000000
    12  H    6.313065   0.000000
    13  H    2.651184   4.245381   0.000000
    14  H    4.261633   4.281989   4.307396   0.000000
    15  H    4.223347   3.886956   3.853612   1.746322   0.000000
    16  H    2.833488   4.056959   2.402345   2.487814   3.064492
    17  H    5.288842   2.378784   4.101224   2.455677   3.069792
    18  H    6.052947   2.542344   4.974042   2.473711   2.498602
    19  H    4.625226   2.348600   2.359753   4.200886   4.054668
    20  H    5.022427   2.546765   2.473218   4.969711   4.163811
    21  H    7.008835   2.406318   5.334717   4.519505   3.464646
    22  H    6.507342   2.518318   4.456204   5.183641   3.914807
    23  H    5.627506   3.069089   4.219899   3.898114   2.374832
    24  H    3.845949   4.063652   2.807244   3.739968   2.247856
    25  H    2.138917   5.721015   3.274588   3.091733   2.563443
    26  H    2.814856   6.408237   4.359192   3.001516   4.082265
    27  H    3.487134   6.219027   4.825382   2.133287   3.044013
    28  H    2.702423   7.371890   4.902100   3.719676   4.278189
    29  H    1.098615   6.348279   2.706743   4.524087   4.787169
    30  H    1.093315   6.198286   2.196005   4.819788   4.419513
    31  H    1.096344   7.357149   3.707554   4.916266   4.918030
                   16         17         18         19         20
    16  H    0.000000
    17  H    2.573729   0.000000
    18  H    3.765812   1.759209   0.000000
    19  H    2.622297   2.658359   3.816838   0.000000
    20  H    3.779429   3.824719   4.325933   1.762426   0.000000
    21  H    5.277800   3.743467   2.579684   4.288710   3.735896
    22  H    5.189638   4.321867   3.763774   3.706942   2.503384
    23  H    4.494796   3.868869   2.975536   3.992104   3.215996
    24  H    3.624894   4.271720   4.042045   3.739836   3.010002
    25  H    3.049680   4.745685   4.881485   4.805068   4.907536
    26  H    2.560929   4.473693   5.305702   5.180788   6.213641
    27  H    3.150870   4.380280   4.595250   5.566903   6.298021
    28  H    3.753228   5.692189   6.131658   6.245927   6.890052
    29  H    2.632222   5.202468   6.255193   4.420934   5.122748
    30  H    3.295697   5.590893   6.281014   4.474215   4.526852
    31  H    3.795017   6.235599   6.911263   5.720322   6.071001
                   21         22         23         24         25
    21  H    0.000000
    22  H    1.772732   0.000000
    23  H    1.758256   1.764227   0.000000
    24  H    3.697199   3.072002   2.025252   0.000000
    25  H    5.721186   5.540953   4.219764   2.626982   0.000000
    26  H    7.187190   7.347599   6.220701   5.115282   3.073917
    27  H    6.404567   6.820204   5.392170   4.531015   2.500081
    28  H    7.686611   7.774645   6.430157   5.071234   2.507311
    29  H    7.396263   6.896967   6.187171   4.551004   3.066875
    30  H    6.834656   6.078506   5.373449   3.455547   2.449064
    31  H    7.905542   7.444281   6.447585   4.610936   2.518322
                   26         27         28         29         30
    26  H    0.000000
    27  H    1.771601   0.000000
    28  H    1.768736   1.763431   0.000000
    29  H    2.704373   3.869508   3.139970   0.000000
    30  H    3.850234   4.345682   3.678876   1.777822   0.000000
    31  H    3.065174   3.685162   2.404238   1.768527   1.765971
                   31
    31  H    0.000000
 Stoichiometry    C10H20O
 Framework group  C1[X(C10H20O)]
 Deg. of freedom    87
 Full point group                 C1      NOp   1
 Largest Abelian subgroup         C1      NOp   1
 Largest concise Abelian subgroup C1      NOp   1
                         Standard orientation:                         
 ---------------------------------------------------------------------
 Center     Atomic      Atomic             Coordinates (Angstroms)
 Number     Number       Type             X           Y           Z
 ---------------------------------------------------------------------
      1          6           0        2.357008    0.264187    0.444324
      2          6           0        0.118906   -1.079804    0.387946
      3          6           0        0.152792    1.364712   -0.290134
      4          6           0       -0.691754    0.240465    0.350890
      5          6           0        1.509859    1.552363    0.408845
      6          6           0        1.509374   -0.890690    1.021721
      7          6           0        3.008676   -0.049175   -0.914777
      8          8           0        0.185282   -1.718701   -0.894403
      9          6           0       -2.084018    0.073015   -0.315770
     10          6           0       -2.934638    1.350805   -0.210076
     11          6           0       -2.869748   -1.117314    0.260146
     12          1           0        3.186031    0.430709    1.146684
     13          1           0       -0.420092   -1.805150    1.005023
     14          1           0       -0.394161    2.312434   -0.259292
     15          1           0        0.303725    1.150058   -1.359963
     16          1           0       -0.861731    0.522325    1.403870
     17          1           0        1.323768    1.881094    1.441594
     18          1           0        2.072283    2.361383   -0.076254
     19          1           0        1.355658   -0.695903    2.093470
     20          1           0        2.052234   -1.841192    0.949250
     21          1           0        3.737586    0.727218   -1.176726
     22          1           0        3.534413   -1.010184   -0.889092
     23          1           0        2.289637   -0.095226   -1.741079
     24          1           0        0.531721   -1.079403   -1.534261
     25          1           0       -1.914635   -0.134324   -1.381943
     26          1           0       -3.101977    1.627442    0.839625
     27          1           0       -2.476104    2.208160   -0.712670
     28          1           0       -3.917996    1.193917   -0.668551
     29          1           0       -2.989502   -1.026257    1.348412
     30          1           0       -2.377610   -2.069728    0.045566
     31          1           0       -3.874246   -1.159154   -0.177122
 ---------------------------------------------------------------------
 Rotational constants (GHZ):      1.8320944      0.7378453      0.6205968
 Standard basis: 6-31+G(d,p) (6D, 7F)
 There are   309 symmetry adapted basis functions of A   symmetry.
 Integral buffers will be    131072 words long.
 Raffenetti 2 integral format.
 Two-electron integral symmetry is turned on.
   309 basis functions,   492 primitive gaussians,   309 cartesian basis functions
    44 alpha electrons       44 beta electrons
       nuclear repulsion energy       697.4199300998 Hartrees.
 NAtoms=   31 NActive=   31 NUniq=   31 SFac= 1.00D+00 NAtFMM=   60 NAOKFM=F Big=F
 ------------------------------------------------------------------------------
 Polarizable Continuum Model (PCM)
 =================================
 Model                : PCM.
 Atomic radii         : UFF (Universal Force Field).
 Polarization charges : Total charges.
 Charge compensation  : None.
 Solution method      : Matrix inversion.
 Cavity type          : Scaled VdW (van der Waals Surface) (Alpha=1.100).
 Cavity algorithm     : GePol (No added spheres)
                        Default sphere list used, NSphG=   31.
                        Lebedev-Laikov grids with approx.  5.0 points / Ang**2.
                        Smoothing algorithm: Karplus/York (Gamma=1.0000).
                        Polarization charges: spherical gaussians, with
                                              point-specific exponents (IZeta= 3).
                        Self-potential: point-specific (ISelfS= 7).
                        Self-field    : sphere-specific E.n sum rule (ISelfD= 2).
 Solvent              : Benzene, Eps=   2.270600 Eps(inf)=   2.253301
 ------------------------------------------------------------------------------
 One-electron integrals computed using PRISM.
 NBasis=   309 RedAO= T  NBF=   309
 NBsUse=   309 1.00D-06 NBFU=   309
 Harris functional with IExCor=  908 diagonalized for initial guess.
 ExpMin= 4.38D-02 ExpMax= 5.48D+03 ExpMxC= 8.25D+02 IAcc=2 IRadAn=         4 AccDes= 0.00D+00
 HarFok:  IExCor=  908 AccDes= 0.00D+00 IRadAn=         4 IDoV= 1
 ScaDFX=  1.000000  1.000000  1.000000  1.000000
 FoFCou: FMM=F IPFlag=           0 FMFlag=      100000 FMFlg1=           0
         NFxFlg=           0 DoJE=T BraDBF=F KetDBF=T FulRan=T
         Omega=  0.000000  0.000000  1.000000  0.000000  0.000000 ICntrl=     500 IOpCl=  0
         NMat0=    1 NMatS0=    1 NMatT0=    0 NMatD0=    1 NMtDS0=    0 NMtDT0=    0
         I1Cent=           4 NGrid=           0.
 Petite list used in FoFCou.
 Initial guess orbital symmetries:
       Occupied  (A) (A) (A) (A) (A) (A) (A) (A) (A) (A) (A) (A)
                 (A) (A) (A) (A) (A) (A) (A) (A) (A) (A) (A) (A)
                 (A) (A) (A) (A) (A) (A) (A) (A) (A) (A) (A) (A)
                 (A) (A) (A) (A) (A) (A) (A) (A)
       Virtual   (A) (A) (A) (A) (A) (A) (A) (A) (A) (A) (A) (A)
                 (A) (A) (A) (A) (A) (A) (A) (A) (A) (A) (A) (A)
                 (A) (A) (A) (A) (A) (A) (A) (A) (A) (A) (A) (A)
                 (A) (A) (A) (A) (A) (A) (A) (A) (A) (A) (A) (A)
                 (A) (A) (A) (A) (A) (A) (A) (A) (A) (A) (A) (A)
                 (A) (A) (A) (A) (A) (A) (A) (A) (A) (A) (A) (A)
                 (A) (A) (A) (A) (A) (A) (A) (A) (A) (A) (A) (A)
                 (A) (A) (A) (A) (A) (A) (A) (A) (A) (A) (A) (A)
                 (A) (A) (A) (A) (A) (A) (A) (A) (A) (A) (A) (A)
                 (A) (A) (A) (A) (A) (A) (A) (A) (A) (A) (A) (A)
                 (A) (A) (A) (A) (A) (A) (A) (A) (A) (A) (A) (A)
                 (A) (A) (A) (A) (A) (A) (A) (A) (A) (A) (A) (A)
                 (A) (A) (A) (A) (A) (A) (A) (A) (A) (A) (A) (A)
                 (A) (A) (A) (A) (A) (A) (A) (A) (A) (A) (A) (A)
                 (A) (A) (A) (A) (A) (A) (A) (A) (A) (A) (A) (A)
                 (A) (A) (A) (A) (A) (A) (A) (A) (A) (A) (A) (A)
                 (A) (A) (A) (A) (A) (A) (A) (A) (A) (A) (A) (A)
                 (A) (A) (A) (A) (A) (A) (A) (A) (A) (A) (A) (A)
                 (A) (A) (A) (A) (A) (A) (A) (A) (A) (A) (A) (A)
                 (A) (A) (A) (A) (A) (A) (A) (A) (A) (A) (A) (A)
                 (A) (A) (A) (A) (A) (A) (A) (A) (A) (A) (A) (A)
                 (A) (A) (A) (A) (A) (A) (A) (A) (A) (A) (A) (A)
                 (A)
 The electronic state of the initial guess is 1-A.
 Requested convergence on RMS density matrix=1.00D-08 within 128 cycles.
 Requested convergence on MAX density matrix=1.00D-06.
 Requested convergence on             energy=1.00D-06.
 No special actions if energy rises.
 Error on total polarization charges =  0.00919
 SCF Done:  E(RmPW1PW91) =  -468.278542482     A.U. after   13 cycles
             Convg  =    0.3936D-08             -V/T =  2.0099
 Range of M.O.s used for correlation:     1   309
 NBasis=   309 NAE=    44 NBE=    44 NFC=     0 NFV=     0
 NROrb=    309 NOA=    44 NOB=    44 NVA=   265 NVB=   265

 **** Warning!!: The largest alpha MO coefficient is  0.10315475D+03

 NEqPCM:  Using equilibrium solvation (IEInf=0, Eps=   2.2706, EpsInf=   2.2533)
          Differentiating once with respect to magnetic field using GIAOs.
          Electric field/nuclear overlap derivatives assumed to be zero.
 FoFCou: FMM=F IPFlag=           0 FMFlag=    10101102 FMFlg1=           0
         NFxFlg=    40000000 DoJE=F BraDBF=F KetDBF=T FulRan=T
         Omega=  0.000000  0.000000  1.000000  0.000000  0.000000 ICntrl=    6100 IOpCl=  0
         NMat0=    1 NMatS0=    1 NMatT0=    0 NMatD0=    1 NMtDS0=    0 NMtDT0=    0
         I1Cent=           7 NGrid=        1910.
 Symmetry not used in FoFCou.
          There are     3 degrees of freedom in the 1st order CPHF.  IDoFFX=0.
      3 vectors produced by pass  0 Test12= 3.89D-13 3.33D-08 XBig12= 3.95D+01 1.12D+00.
 AX will form     3 AO Fock derivatives at one time.
      3 vectors produced by pass  1 Test12= 3.89D-13 3.33D-08 XBig12= 8.14D-02 3.67D-02.
      3 vectors produced by pass  2 Test12= 3.89D-13 3.33D-08 XBig12= 1.05D-04 1.67D-03.
      3 vectors produced by pass  3 Test12= 3.89D-13 3.33D-08 XBig12= 2.77D-07 1.19D-04.
      3 vectors produced by pass  4 Test12= 3.89D-13 3.33D-08 XBig12= 1.23D-09 6.99D-06.
      3 vectors produced by pass  5 Test12= 3.89D-13 3.33D-08 XBig12= 3.41D-12 3.91D-07.
 Inverted reduced A of dimension    18 with in-core refinement.
 Calculating GIAO nuclear magnetic shielding tensors.
 SCF GIAO Magnetic shielding tensor (ppm):
      1  C    Isotropic =   166.3402   Anisotropy =     4.4283
   XX=   164.4231   YX=    -0.3239   ZX=    -1.2292
   XY=     0.6550   YY=   165.3355   ZY=    -1.6244
   XZ=     0.8049   YZ=     1.0594   ZZ=   169.2619
   Eigenvalues:   164.3887   165.3395   169.2924
      2  C    Isotropic =   126.1622   Anisotropy =    53.6653
   XX=   117.3730   YX=    -5.1016   ZX=     0.0752
   XY=    -7.6641   YY=   107.6596   ZY=    21.7958
   XZ=    -4.2260   YZ=    19.9253   ZZ=   153.4539
   Eigenvalues:    98.1525   118.3950   161.9390
      3  C    Isotropic =   174.7676   Anisotropy =    22.1561
   XX=   184.5662   YX=     7.9119   ZX=     3.0950
   XY=    11.8076   YY=   169.9857   ZY=    -2.1668
   XZ=    -1.7295   YZ=    -0.2669   ZZ=   169.7509
   Eigenvalues:   164.6340   170.1305   189.5384
      4  C    Isotropic =   146.8021   Anisotropy =    17.9369
   XX=   154.8851   YX=    -2.3219   ZX=     0.8178
   XY=     1.4072   YY=   134.5792   ZY=    10.8602
   XZ=     8.3538   YZ=     5.4128   ZZ=   150.9418
   Eigenvalues:   131.0184   150.6278   158.7600
      5  C    Isotropic =   162.9116   Anisotropy =    10.8565
   XX=   166.1114   YX=    -3.9249   ZX=    -2.0921
   XY=    -4.5006   YY=   164.8039   ZY=     4.5124
   XZ=    -0.9952   YZ=    -1.0535   ZZ=   157.8195
   Eigenvalues:   157.3672   161.2183   170.1493
      6  C    Isotropic =   155.2276   Anisotropy =    11.0457
   XX=   162.1668   YX=     2.7444   ZX=     0.4457
   XY=     1.3880   YY=   152.4784   ZY=     5.2775
   XZ=    -1.4362   YZ=     1.1336   ZZ=   151.0376
   Eigenvalues:   148.2664   154.8251   162.5914
      7  C    Isotropic =   173.2694   Anisotropy =    30.9375
   XX=   168.5271   YX=     0.3778   ZX=   -16.3406
   XY=    -0.7024   YY=   170.8212   ZY=    -1.4274
   XZ=   -20.5723   YZ=     0.4373   ZZ=   180.4599
   Eigenvalues:   155.0853   170.8285   193.8944
      8  O    Isotropic =   287.1906   Anisotropy =    24.6750
   XX=   283.9986   YX=    23.7232   ZX=    13.0425
   XY=    14.7361   YY=   282.6057   ZY=   -22.7710
   XZ=     3.7804   YZ=    -0.3925   ZZ=   294.9677
   Eigenvalues:   258.5313   299.4000   303.6406
      9  C    Isotropic =   163.3546   Anisotropy =    18.1754
   XX=   173.2269   YX=     7.5991   ZX=     0.8567
   XY=     3.3819   YY=   161.5426   ZY=    -1.8286
   XZ=     2.6850   YZ=    -0.7118   ZZ=   155.2944
   Eigenvalues:   154.5328   160.0595   175.4716
     10  C    Isotropic =   174.6016   Anisotropy =    32.1115
   XX=   174.9607   YX=   -16.0035   ZX=     0.8906
   XY=   -12.1364   YY=   186.2596   ZY=     0.7418
   XZ=     0.0228   YZ=     6.6562   ZZ=   162.5846
   Eigenvalues:   161.0063   166.7893   196.0093
     11  C    Isotropic =   175.3852   Anisotropy =    30.8616
   XX=   173.3680   YX=    13.7756   ZX=    -4.8372
   XY=    10.6218   YY=   184.6014   ZY=    -6.9513
   XZ=    -3.1040   YZ=   -11.4928   ZZ=   168.1862
   Eigenvalues:   163.4991   166.6969   195.9596
     12  H    Isotropic =    29.7582   Anisotropy =    10.2836
   XX=    32.8966   YX=     1.1707   ZX=     4.1018
   XY=     1.3238   YY=    25.7233   ZY=     1.3056
   XZ=     4.7448   YZ=     1.1253   ZZ=    30.6547
   Eigenvalues:    25.4278    27.2328    36.6139
     13  H    Isotropic =    27.5971   Anisotropy =     4.9143
   XX=    29.1762   YX=     1.5820   ZX=    -0.4914
   XY=     1.2136   YY=    26.2337   ZY=    -1.5133
   XZ=    -1.2041   YZ=    -3.6333   ZZ=    27.3813
   Eigenvalues:    24.1032    27.8147    30.8732
     14  H    Isotropic =    29.9653   Anisotropy =     8.9731
   XX=    33.0149   YX=    -2.2652   ZX=     0.9969
   XY=    -2.2501   YY=    33.8352   ZY=    -1.2582
   XZ=     1.4908   YZ=    -1.1293   ZZ=    23.0457
   Eigenvalues:    22.8139    31.1346    35.9473
     15  H    Isotropic =    30.4085   Anisotropy =     5.3448
   XX=    30.3736   YX=     0.3295   ZX=    -0.2287
   XY=    -0.0655   YY=    27.2649   ZY=    -1.6562
   XZ=    -0.8424   YZ=    -1.1638   ZZ=    33.5870
   Eigenvalues:    26.9646    30.2892    33.9717
     16  H    Isotropic =    30.5990   Anisotropy =     4.4831
   XX=    31.5135   YX=    -0.2092   ZX=    -1.1030
   XY=    -0.4186   YY=    27.8877   ZY=     1.3786
   XZ=    -1.1820   YZ=     1.8422   ZZ=    32.3958
   Eigenvalues:    27.3709    30.8384    33.5877
     17  H    Isotropic =    29.9943   Anisotropy =     8.9072
   XX=    28.3954   YX=    -0.2448   ZX=     1.2219
   XY=    -0.4715   YY=    29.8226   ZY=     5.2437
   XZ=     0.9500   YZ=     4.7466   ZZ=    31.7649
   Eigenvalues:    25.3902    28.6604    35.9324
     18  H    Isotropic =    30.0429   Anisotropy =     9.7500
   XX=    30.8684   YX=     3.6460   ZX=    -0.6091
   XY=     3.7239   YY=    33.8022   ZY=    -1.6548
   XZ=    -0.7353   YZ=    -1.3854   ZZ=    25.4582
   Eigenvalues:    25.1898    28.3960    36.5430
     19  H    Isotropic =    29.9702   Anisotropy =     8.3136
   XX=    28.2048   YX=     0.4168   ZX=     1.0465
   XY=     0.8105   YY=    26.6664   ZY=    -1.9273
   XZ=     0.9705   YZ=    -1.6703   ZZ=    35.0393
   Eigenvalues:    25.9930    28.4050    35.5125
     20  H    Isotropic =    29.7631   Anisotropy =     8.0971
   XX=    29.8634   YX=    -2.6346   ZX=     0.6105
   XY=    -2.3433   YY=    32.9249   ZY=    -2.1390
   XZ=     1.3634   YZ=    -2.9480   ZZ=    26.5008
   Eigenvalues:    25.6118    28.5162    35.1611
     21  H    Isotropic =    30.6016   Anisotropy =    11.4310
   XX=    33.6718   YX=     4.0034   ZX=    -4.1229
   XY=     3.7047   YY=    29.1902   ZY=    -1.0531
   XZ=    -4.5845   YZ=    -2.4343   ZZ=    28.9429
   Eigenvalues:    26.1766    27.4060    38.2223
     22  H    Isotropic =    30.3962   Anisotropy =     9.5954
   XX=    31.7187   YX=    -4.3198   ZX=    -2.3619
   XY=    -4.0126   YY=    31.9224   ZY=     0.5603
   XZ=    -2.8380   YZ=     1.9457   ZZ=    27.5475
   Eigenvalues:    26.1521    28.2434    36.7931
     23  H    Isotropic =    30.5212   Anisotropy =     4.8075
   XX=    31.6471   YX=     0.4106   ZX=    -0.7500
   XY=     0.2808   YY=    26.3582   ZY=     1.2965
   XZ=     0.5572   YZ=     0.9220   ZZ=    33.5582
   Eigenvalues:    26.1680    31.6693    33.7262
     24  H    Isotropic =    30.9203   Anisotropy =    13.0607
   XX=    26.6926   YX=     3.0004   ZX=    -5.7283
   XY=     4.1439   YY=    31.2440   ZY=    -2.2893
   XZ=    -5.2130   YZ=    -3.2714   ZZ=    34.8244
   Eigenvalues:    23.3781    29.7554    39.6275
     25  H    Isotropic =    29.9633   Anisotropy =     4.8238
   XX=    29.5295   YX=    -0.7660   ZX=    -0.2801
   XY=    -0.8665   YY=    27.5489   ZY=     1.3691
   XZ=    -0.3574   YZ=     1.2099   ZZ=    32.8114
   Eigenvalues:    27.0367    29.6740    33.1792
     26  H    Isotropic =    31.0603   Anisotropy =     8.5635
   XX=    30.4859   YX=    -2.4807   ZX=    -2.8138
   XY=    -2.6370   YY=    30.5522   ZY=     3.7180
   XZ=    -2.1933   YZ=     2.9101   ZZ=    32.1427
   Eigenvalues:    27.7221    28.6895    36.7693
     27  H    Isotropic =    30.2910   Anisotropy =     8.5372
   XX=    30.6006   YX=    -1.1396   ZX=    -0.1455
   XY=     0.3570   YY=    34.3701   ZY=    -4.3560
   XZ=    -0.0579   YZ=    -3.6498   ZZ=    25.9025
   Eigenvalues:    24.3007    30.5899    35.9825
     28  H    Isotropic =    30.7204   Anisotropy =    10.5452
   XX=    35.7894   YX=    -1.3934   ZX=     3.8551
   XY=    -2.5868   YY=    28.7614   ZY=    -0.7987
   XZ=     3.6620   YZ=    -0.6217   ZZ=    27.6104
   Eigenvalues:    26.1439    28.2667    37.7505
     29  H    Isotropic =    31.0682   Anisotropy =     8.5891
   XX=    30.3952   YX=     1.3747   ZX=    -3.1108
   XY=     1.5579   YY=    28.3953   ZY=    -2.5005
   XZ=    -2.7459   YZ=    -1.9491   ZZ=    34.4142
   Eigenvalues:    27.5119    28.8985    36.7943
     30  H    Isotropic =    29.9673   Anisotropy =     8.3933
   XX=    30.4022   YX=     0.5830   ZX=    -0.8782
   XY=    -0.3481   YY=    35.5511   ZY=     0.6696
   XZ=    -0.7382   YZ=     0.0120   ZZ=    23.9486
   Eigenvalues:    23.8383    30.5008    35.5628
     31  H    Isotropic =    30.7833   Anisotropy =    10.5919
   XX=    35.9472   YX=     2.8103   ZX=     2.7405
   XY=     3.9329   YY=    29.4149   ZY=     0.1499
   XZ=     2.0871   YZ=    -0.0143   ZZ=    26.9877
   Eigenvalues:    26.1235    28.3818    37.8446
 End of Minotr Frequency-dependent properties file   721 does not exist.
 End of Minotr Frequency-dependent properties file   722 does not exist.

 **********************************************************************

            Population analysis using the SCF density.

 **********************************************************************

 Orbital symmetries:
       Occupied  (A) (A) (A) (A) (A) (A) (A) (A) (A) (A) (A) (A)
                 (A) (A) (A) (A) (A) (A) (A) (A) (A) (A) (A) (A)
                 (A) (A) (A) (A) (A) (A) (A) (A) (A) (A) (A) (A)
                 (A) (A) (A) (A) (A) (A) (A) (A)
       Virtual   (A) (A) (A) (A) (A) (A) (A) (A) (A) (A) (A) (A)
                 (A) (A) (A) (A) (A) (A) (A) (A) (A) (A) (A) (A)
                 (A) (A) (A) (A) (A) (A) (A) (A) (A) (A) (A) (A)
                 (A) (A) (A) (A) (A) (A) (A) (A) (A) (A) (A) (A)
                 (A) (A) (A) (A) (A) (A) (A) (A) (A) (A) (A) (A)
                 (A) (A) (A) (A) (A) (A) (A) (A) (A) (A) (A) (A)
                 (A) (A) (A) (A) (A) (A) (A) (A) (A) (A) (A) (A)
                 (A) (A) (A) (A) (A) (A) (A) (A) (A) (A) (A) (A)
                 (A) (A) (A) (A) (A) (A) (A) (A) (A) (A) (A) (A)
                 (A) (A) (A) (A) (A) (A) (A) (A) (A) (A) (A) (A)
                 (A) (A) (A) (A) (A) (A) (A) (A) (A) (A) (A) (A)
                 (A) (A) (A) (A) (A) (A) (A) (A) (A) (A) (A) (A)
                 (A) (A) (A) (A) (A) (A) (A) (A) (A) (A) (A) (A)
                 (A) (A) (A) (A) (A) (A) (A) (A) (A) (A) (A) (A)
                 (A) (A) (A) (A) (A) (A) (A) (A) (A) (A) (A) (A)
                 (A) (A) (A) (A) (A) (A) (A) (A) (A) (A) (A) (A)
                 (A) (A) (A) (A) (A) (A) (A) (A) (A) (A) (A) (A)
                 (A) (A) (A) (A) (A) (A) (A) (A) (A) (A) (A) (A)
                 (A) (A) (A) (A) (A) (A) (A) (A) (A) (A) (A) (A)
                 (A) (A) (A) (A) (A) (A) (A) (A) (A) (A) (A) (A)
                 (A) (A) (A) (A) (A) (A) (A) (A) (A) (A) (A) (A)
                 (A) (A) (A) (A) (A) (A) (A) (A) (A) (A) (A) (A)
                 (A)
 The electronic state is 1-A.
 Alpha  occ. eigenvalues --  -19.24271 -10.29289 -10.25309 -10.25002 -10.24971
 Alpha  occ. eigenvalues --  -10.24465 -10.24299 -10.23974 -10.23798 -10.23227
 Alpha  occ. eigenvalues --  -10.22865  -1.04791  -0.85905  -0.82253  -0.76610
 Alpha  occ. eigenvalues --   -0.75822  -0.70076  -0.69920  -0.63383  -0.62939
 Alpha  occ. eigenvalues --   -0.57489  -0.55749  -0.52219  -0.48039  -0.47156
 Alpha  occ. eigenvalues --   -0.45492  -0.44469  -0.44065  -0.43843  -0.42653
 Alpha  occ. eigenvalues --   -0.40247  -0.39864  -0.39219  -0.38813  -0.37490
 Alpha  occ. eigenvalues --   -0.36140  -0.35390  -0.34343  -0.33918  -0.33093
 Alpha  occ. eigenvalues --   -0.32666  -0.31848  -0.29711  -0.27512
 Alpha virt. eigenvalues --    0.00370   0.01771   0.01998   0.02599   0.03984
 Alpha virt. eigenvalues --    0.04243   0.04579   0.04743   0.05914   0.06801
 Alpha virt. eigenvalues --    0.07056   0.07438   0.07658   0.08729   0.09183
 Alpha virt. eigenvalues --    0.09950   0.10181   0.10674   0.11101   0.11449
 Alpha virt. eigenvalues --    0.11811   0.12850   0.13951   0.14082   0.14524
 Alpha virt. eigenvalues --    0.15847   0.15901   0.16111   0.16863   0.17598
 Alpha virt. eigenvalues --    0.17746   0.18415   0.18908   0.19130   0.19929
 Alpha virt. eigenvalues --    0.20368   0.20617   0.21041   0.21575   0.22325
 Alpha virt. eigenvalues --    0.22805   0.23183   0.23638   0.23818   0.24539
 Alpha virt. eigenvalues --    0.24911   0.25441   0.25756   0.26478   0.27150
 Alpha virt. eigenvalues --    0.27274   0.27925   0.28829   0.29356   0.29599
 Alpha virt. eigenvalues --    0.30641   0.31533   0.32109   0.32905   0.33344
 Alpha virt. eigenvalues --    0.34180   0.34445   0.35348   0.36316   0.36680
 Alpha virt. eigenvalues --    0.37579   0.38056   0.39387   0.40059   0.40975
 Alpha virt. eigenvalues --    0.43420   0.44360   0.44510   0.49541   0.54236
 Alpha virt. eigenvalues --    0.63380   0.63841   0.64653   0.65801   0.66465
 Alpha virt. eigenvalues --    0.67650   0.68205   0.70166   0.71683   0.72396
 Alpha virt. eigenvalues --    0.73413   0.73980   0.74273   0.75690   0.76233
 Alpha virt. eigenvalues --    0.77579   0.79436   0.81710   0.82506   0.83296
 Alpha virt. eigenvalues --    0.85528   0.86353   0.87614   0.90433   0.94001
 Alpha virt. eigenvalues --    0.96478   0.98441   0.98914   0.99756   1.00857
 Alpha virt. eigenvalues --    1.01441   1.01995   1.03067   1.04200   1.04438
 Alpha virt. eigenvalues --    1.06103   1.08333   1.09556   1.10317   1.10751
 Alpha virt. eigenvalues --    1.11696   1.13977   1.14886   1.16513   1.16879
 Alpha virt. eigenvalues --    1.17438   1.17808   1.18370   1.19897   1.21156
 Alpha virt. eigenvalues --    1.22965   1.26837   1.27951   1.28514   1.34000
 Alpha virt. eigenvalues --    1.36009   1.37100   1.38623   1.44138   1.45999
 Alpha virt. eigenvalues --    1.49163   1.50608   1.53320   1.54953   1.57050
 Alpha virt. eigenvalues --    1.57775   1.58932   1.60581   1.62719   1.64718
 Alpha virt. eigenvalues --    1.68215   1.72251   1.75696   1.77949   1.81015
 Alpha virt. eigenvalues --    1.81622   1.84479   1.85957   1.87016   1.87570
 Alpha virt. eigenvalues --    1.88004   1.89828   1.90962   1.92018   1.93767
 Alpha virt. eigenvalues --    1.95161   1.96967   1.98341   2.01917   2.03577
 Alpha virt. eigenvalues --    2.04976   2.06211   2.07131   2.07684   2.08649
 Alpha virt. eigenvalues --    2.10038   2.12512   2.13900   2.14769   2.15711
 Alpha virt. eigenvalues --    2.16491   2.17008   2.18069   2.18297   2.20315
 Alpha virt. eigenvalues --    2.21227   2.23112   2.23430   2.24862   2.31450
 Alpha virt. eigenvalues --    2.32354   2.33173   2.35750   2.36552   2.38036
 Alpha virt. eigenvalues --    2.39728   2.40794   2.42102   2.42442   2.43313
 Alpha virt. eigenvalues --    2.45378   2.49920   2.51534   2.52794   2.55451
 Alpha virt. eigenvalues --    2.57390   2.59653   2.62377   2.64262   2.65460
 Alpha virt. eigenvalues --    2.66210   2.69326   2.70566   2.71042   2.72487
 Alpha virt. eigenvalues --    2.73327   2.74019   2.75251   2.76703   2.77803
 Alpha virt. eigenvalues --    2.80226   2.81177   2.83395   2.85090   2.85335
 Alpha virt. eigenvalues --    2.88395   2.90114   2.91126   2.91758   2.92037
 Alpha virt. eigenvalues --    2.93059   2.94498   2.95215   2.96679   2.97825
 Alpha virt. eigenvalues --    3.00742   3.02572   3.06376   3.12664   3.28942
 Alpha virt. eigenvalues --    3.29645   3.30953   3.35881   3.37070   3.38100
 Alpha virt. eigenvalues --    3.40380   3.44656   3.48390   3.49061   3.49780
 Alpha virt. eigenvalues --    3.51082   3.53316   3.54646   3.55909   3.56498
 Alpha virt. eigenvalues --    3.57733   3.59864   3.62452   3.64358   4.35829
 Alpha virt. eigenvalues --    4.41834   4.44829   4.52610   4.59706   4.60819
 Alpha virt. eigenvalues --    4.66719   4.72587   4.82983   4.88157   4.93685
          Condensed to atoms (all electrons):
              1          2          3          4          5          6
     1  C    6.778411   0.083024   0.125455  -0.041138  -0.588520  -0.953330
     2  C    0.083024   7.655263  -0.079153  -1.834101  -0.113205  -1.010603
     3  C    0.125455  -0.079153   7.049038  -1.365164  -0.698124  -0.189604
     4  C   -0.041138  -1.834101  -1.365164  10.798734   0.396606   0.333904
     5  C   -0.588520  -0.113205  -0.698124   0.396606   6.595026   0.673442
     6  C   -0.953330  -1.010603  -0.189604   0.333904   0.673442   7.489577
     7  C    0.209855   0.024963   0.048572  -0.084350  -0.127502  -0.090135
     8  O    0.055199   0.192948   0.002461   0.069366  -0.054516  -0.134096
     9  C    0.020201   1.098716   0.890907  -3.530910  -0.288711  -0.092626
    10  C   -0.049371  -0.317449  -0.226119   0.911454   0.118953   0.085294
    11  C    0.105903  -0.021559   0.013811   0.199497  -0.127340  -0.183189
    12  H    0.270949   0.026676   0.032207  -0.016302   0.004981   0.000579
    13  H    0.051866   0.274445   0.030522   0.048432  -0.021677  -0.007481
    14  H    0.027059   0.037326   0.305374  -0.075359   0.036476  -0.000304
    15  H    0.041585   0.016869   0.411351  -0.014382  -0.084448  -0.057019
    16  H    0.034167  -0.021553  -0.009278   0.364282  -0.031128  -0.049260
    17  H    0.012999   0.001250  -0.042164   0.034969   0.355831  -0.058711
    18  H   -0.094580  -0.012459  -0.075748   0.030780   0.436643   0.038221
    19  H    0.077179  -0.022648   0.025787   0.014246  -0.080843   0.265595
    20  H   -0.109828  -0.118915  -0.020575   0.044649   0.042373   0.494225
    21  H   -0.096869  -0.017582   0.006304  -0.000081  -0.002424   0.037868
    22  H   -0.099625  -0.010759  -0.019465   0.004297   0.035869   0.020069
    23  H   -0.047111   0.032470   0.024223  -0.021054  -0.017570  -0.023563
    24  H    0.060658   0.046476  -0.010958   0.060437  -0.017303  -0.078120
    25  H    0.000628  -0.044752  -0.000721   0.027006  -0.001228   0.001539
    26  H   -0.000113  -0.007856   0.007840   0.003506   0.000326   0.000624
    27  H    0.001392   0.005025  -0.001078  -0.011222   0.000264  -0.001453
    28  H   -0.000290  -0.008292  -0.004403   0.062679   0.000907   0.000604
    29  H   -0.000193  -0.018571  -0.000512   0.030264   0.000313   0.005204
    30  H   -0.000095   0.012959  -0.001184  -0.021865  -0.000896  -0.003315
    31  H   -0.000118  -0.007009  -0.005788   0.061856   0.000238   0.000081
              7          8          9         10         11         12
     1  C    0.209855   0.055199   0.020201  -0.049371   0.105903   0.270949
     2  C    0.024963   0.192948   1.098716  -0.317449  -0.021559   0.026676
     3  C    0.048572   0.002461   0.890907  -0.226119   0.013811   0.032207
     4  C   -0.084350   0.069366  -3.530910   0.911454   0.199497  -0.016302
     5  C   -0.127502  -0.054516  -0.288711   0.118953  -0.127340   0.004981
     6  C   -0.090135  -0.134096  -0.092626   0.085294  -0.183189   0.000579
     7  C    5.351976   0.015721   0.049659  -0.010164  -0.000938  -0.031798
     8  O    0.015721   8.222556  -0.059410   0.041991  -0.057276  -0.000400
     9  C    0.049659  -0.059410   9.354812  -0.874462  -0.476172   0.001475
    10  C   -0.010164   0.041991  -0.874462   5.818242  -0.141639   0.000129
    11  C   -0.000938  -0.057276  -0.476172  -0.141639   5.927463  -0.000105
    12  H   -0.031798  -0.000400   0.001475   0.000129  -0.000105   0.575347
    13  H   -0.000335  -0.059797  -0.069994   0.002567   0.025586  -0.000165
    14  H    0.001699  -0.000693   0.022688  -0.012416  -0.009121  -0.000119
    15  H    0.002701   0.002031  -0.023705  -0.000946   0.010514  -0.000081
    16  H    0.000773   0.009611  -0.037975  -0.002916   0.007921  -0.000052
    17  H    0.012412   0.000186   0.000091  -0.000375   0.003045  -0.006169
    18  H    0.006791   0.000004  -0.005774  -0.000457  -0.000006  -0.001890
    19  H    0.015324   0.010097   0.012122  -0.001467   0.006006  -0.007758
    20  H    0.001284  -0.003837  -0.004513   0.000730  -0.002719  -0.001292
    21  H    0.433657   0.000557  -0.000667  -0.000058  -0.000030  -0.005455
    22  H    0.428526  -0.000777  -0.001016   0.000104  -0.000392  -0.002140
    23  H    0.396004  -0.008135   0.005312   0.000367  -0.000207   0.005159
    24  H   -0.003851   0.233015  -0.060786  -0.000289   0.016302  -0.000052
    25  H    0.000892   0.009311   0.271036  -0.024492   0.029794   0.000000
    26  H    0.000113   0.000154  -0.098240   0.430201   0.010489   0.000000
    27  H   -0.000127  -0.000125  -0.060923   0.436628  -0.006830   0.000000
    28  H   -0.000033   0.000078  -0.159503   0.459009   0.008090   0.000000
    29  H    0.000070   0.000469  -0.117498   0.005469   0.440264   0.000000
    30  H   -0.000186   0.002425  -0.056556  -0.005733   0.441274   0.000000
    31  H   -0.000038   0.000123  -0.164821   0.008359   0.463765   0.000000
             13         14         15         16         17         18
     1  C    0.051866   0.027059   0.041585   0.034167   0.012999  -0.094580
     2  C    0.274445   0.037326   0.016869  -0.021553   0.001250  -0.012459
     3  C    0.030522   0.305374   0.411351  -0.009278  -0.042164  -0.075748
     4  C    0.048432  -0.075359  -0.014382   0.364282   0.034969   0.030780
     5  C   -0.021677   0.036476  -0.084448  -0.031128   0.355831   0.436643
     6  C   -0.007481  -0.000304  -0.057019  -0.049260  -0.058711   0.038221
     7  C   -0.000335   0.001699   0.002701   0.000773   0.012412   0.006791
     8  O   -0.059797  -0.000693   0.002031   0.009611   0.000186   0.000004
     9  C   -0.069994   0.022688  -0.023705  -0.037975   0.000091  -0.005774
    10  C    0.002567  -0.012416  -0.000946  -0.002916  -0.000375  -0.000457
    11  C    0.025586  -0.009121   0.010514   0.007921   0.003045  -0.000006
    12  H   -0.000165  -0.000119  -0.000081  -0.000052  -0.006169  -0.001890
    13  H    0.585142  -0.000121  -0.000117  -0.004032  -0.000051   0.000013
    14  H   -0.000121   0.549260  -0.029840  -0.004443  -0.004407  -0.003004
    15  H   -0.000117  -0.029840   0.565898   0.004927   0.004662  -0.003348
    16  H   -0.004032  -0.004443   0.004927   0.564385   0.002704   0.000027
    17  H   -0.000051  -0.004407   0.004662   0.002704   0.545967  -0.027423
    18  H    0.000013  -0.003004  -0.003348   0.000027  -0.027423   0.551189
    19  H   -0.003802  -0.000020   0.000062   0.001251   0.002518  -0.000029
    20  H   -0.004077   0.000011  -0.000008   0.000033  -0.000043  -0.000130
    21  H    0.000005  -0.000013   0.000043  -0.000001   0.000021   0.002688
    22  H   -0.000021   0.000002  -0.000028   0.000002  -0.000128   0.000072
    23  H   -0.000064  -0.000046  -0.000963  -0.000019  -0.000055  -0.000271
    24  H    0.007505  -0.000129   0.000283  -0.000077  -0.000007   0.000044
    25  H    0.000134  -0.000207   0.003604   0.005312   0.000002   0.000001
    26  H    0.000015   0.000096   0.000083   0.003962   0.000008   0.000000
    27  H    0.000002   0.000333   0.000259  -0.000152   0.000014   0.000007
    28  H   -0.000002   0.000009  -0.000032  -0.000003   0.000000   0.000000
    29  H   -0.000208   0.000001   0.000004   0.003414   0.000000   0.000000
    30  H   -0.001678   0.000002  -0.000002  -0.000060   0.000000   0.000000
    31  H    0.000098  -0.000003  -0.000001  -0.000039   0.000000   0.000000
             19         20         21         22         23         24
     1  C    0.077179  -0.109828  -0.096869  -0.099625  -0.047111   0.060658
     2  C   -0.022648  -0.118915  -0.017582  -0.010759   0.032470   0.046476
     3  C    0.025787  -0.020575   0.006304  -0.019465   0.024223  -0.010958
     4  C    0.014246   0.044649  -0.000081   0.004297  -0.021054   0.060437
     5  C   -0.080843   0.042373  -0.002424   0.035869  -0.017570  -0.017303
     6  C    0.265595   0.494225   0.037868   0.020069  -0.023563  -0.078120
     7  C    0.015324   0.001284   0.433657   0.428526   0.396004  -0.003851
     8  O    0.010097  -0.003837   0.000557  -0.000777  -0.008135   0.233015
     9  C    0.012122  -0.004513  -0.000667  -0.001016   0.005312  -0.060786
    10  C   -0.001467   0.000730  -0.000058   0.000104   0.000367  -0.000289
    11  C    0.006006  -0.002719  -0.000030  -0.000392  -0.000207   0.016302
    12  H   -0.007758  -0.001292  -0.005455  -0.002140   0.005159  -0.000052
    13  H   -0.003802  -0.004077   0.000005  -0.000021  -0.000064   0.007505
    14  H   -0.000020   0.000011  -0.000013   0.000002  -0.000046  -0.000129
    15  H    0.000062  -0.000008   0.000043  -0.000028  -0.000963   0.000283
    16  H    0.001251   0.000033  -0.000001   0.000002  -0.000019  -0.000077
    17  H    0.002518  -0.000043   0.000021  -0.000128  -0.000055  -0.000007
    18  H   -0.000029  -0.000130   0.002688   0.000072  -0.000271   0.000044
    19  H    0.549288  -0.025488  -0.000127   0.000051  -0.000133  -0.000207
    20  H   -0.025488   0.533941   0.000073   0.003215  -0.000004  -0.000155
    21  H   -0.000127   0.000073   0.528738  -0.025038  -0.029291   0.000047
    22  H    0.000051   0.003215  -0.025038   0.522857  -0.027631  -0.000157
    23  H   -0.000133  -0.000004  -0.029291  -0.027631   0.575156   0.004038
    24  H   -0.000207  -0.000155   0.000047  -0.000157   0.004038   0.397902
    25  H    0.000002   0.000002   0.000000   0.000000  -0.000024   0.000013
    26  H    0.000002   0.000000   0.000000   0.000000   0.000000   0.000000
    27  H    0.000000   0.000000   0.000000   0.000000   0.000000   0.000009
    28  H    0.000000   0.000000   0.000000   0.000000   0.000000  -0.000001
    29  H    0.000007   0.000001   0.000000   0.000000   0.000000  -0.000005
    30  H    0.000002   0.000007   0.000000   0.000000   0.000000  -0.000178
    31  H    0.000000   0.000000   0.000000   0.000000   0.000000   0.000000
             25         26         27         28         29         30
     1  C    0.000628  -0.000113   0.001392  -0.000290  -0.000193  -0.000095
     2  C   -0.044752  -0.007856   0.005025  -0.008292  -0.018571   0.012959
     3  C   -0.000721   0.007840  -0.001078  -0.004403  -0.000512  -0.001184
     4  C    0.027006   0.003506  -0.011222   0.062679   0.030264  -0.021865
     5  C   -0.001228   0.000326   0.000264   0.000907   0.000313  -0.000896
     6  C    0.001539   0.000624  -0.001453   0.000604   0.005204  -0.003315
     7  C    0.000892   0.000113  -0.000127  -0.000033   0.000070  -0.000186
     8  O    0.009311   0.000154  -0.000125   0.000078   0.000469   0.002425
     9  C    0.271036  -0.098240  -0.060923  -0.159503  -0.117498  -0.056556
    10  C   -0.024492   0.430201   0.436628   0.459009   0.005469  -0.005733
    11  C    0.029794   0.010489  -0.006830   0.008090   0.440264   0.441274
    12  H    0.000000   0.000000   0.000000   0.000000   0.000000   0.000000
    13  H    0.000134   0.000015   0.000002  -0.000002  -0.000208  -0.001678
    14  H   -0.000207   0.000096   0.000333   0.000009   0.000001   0.000002
    15  H    0.003604   0.000083   0.000259  -0.000032   0.000004  -0.000002
    16  H    0.005312   0.003962  -0.000152  -0.000003   0.003414  -0.000060
    17  H    0.000002   0.000008   0.000014   0.000000   0.000000   0.000000
    18  H    0.000001   0.000000   0.000007   0.000000   0.000000   0.000000
    19  H    0.000002   0.000002   0.000000   0.000000   0.000007   0.000002
    20  H    0.000002   0.000000   0.000000   0.000000   0.000001   0.000007
    21  H    0.000000   0.000000   0.000000   0.000000   0.000000   0.000000
    22  H    0.000000   0.000000   0.000000   0.000000   0.000000   0.000000
    23  H   -0.000024   0.000000   0.000000   0.000000   0.000000   0.000000
    24  H    0.000013   0.000000   0.000009  -0.000001  -0.000005  -0.000178
    25  H    0.568182   0.004892  -0.004000  -0.003038   0.004867  -0.004392
    26  H    0.004892   0.534661  -0.029096  -0.027724   0.002701  -0.000019
    27  H   -0.004000  -0.029096   0.539416  -0.026338  -0.000041  -0.000129
    28  H   -0.003038  -0.027724  -0.026338   0.530381  -0.000121   0.000108
    29  H    0.004867   0.002701  -0.000041  -0.000121   0.537372  -0.027927
    30  H   -0.004392  -0.000019  -0.000129   0.000108  -0.027927   0.511092
    31  H   -0.002740  -0.000179   0.000136   0.003039  -0.028095  -0.024683
             31
     1  C   -0.000118
     2  C   -0.007009
     3  C   -0.005788
     4  C    0.061856
     5  C    0.000238
     6  C    0.000081
     7  C   -0.000038
     8  O    0.000123
     9  C   -0.164821
    10  C    0.008359
    11  C    0.463765
    12  H    0.000000
    13  H    0.000098
    14  H   -0.000003
    15  H   -0.000001
    16  H   -0.000039
    17  H    0.000000
    18  H    0.000000
    19  H    0.000000
    20  H    0.000000
    21  H    0.000000
    22  H    0.000000
    23  H    0.000000
    24  H    0.000000
    25  H   -0.002740
    26  H   -0.000179
    27  H    0.000136
    28  H    0.003039
    29  H   -0.028095
    30  H   -0.024683
    31  H    0.534555
 Mulliken atomic charges:
              1
     1  C    0.124650
     2  C    0.158057
     3  C   -0.223813
     4  C   -0.481036
     5  C   -0.442813
     6  C   -0.514018
     7  C   -0.651532
     8  O   -0.489240
     9  C    0.457244
    10  C   -0.651145
    11  C   -0.682200
    12  H    0.156278
    13  H    0.147292
    14  H    0.159907
    15  H    0.150044
    16  H    0.158218
    17  H    0.162853
    18  H    0.158638
    19  H    0.162981
    20  H    0.171039
    21  H    0.167638
    22  H    0.172113
    23  H    0.133411
    24  H    0.345549
    25  H    0.158376
    26  H    0.163555
    27  H    0.158029
    28  H    0.164877
    29  H    0.162754
    30  H    0.181029
    31  H    0.161265
 Sum of Mulliken atomic charges =   0.00000
 Mulliken charges with hydrogens summed into heavy atoms:
              1
     1  C    0.280928
     2  C    0.305349
     3  C    0.086138
     4  C   -0.322818
     5  C   -0.121322
     6  C   -0.179999
     7  C   -0.178370
     8  O   -0.143692
     9  C    0.615620
    10  C   -0.164683
    11  C   -0.177152
 Sum of Mulliken charges with hydrogens summed into heavy atoms =   0.00000
 Electronic spatial extent (au):  <R**2>=           2080.3404
 Charge=              0.0000 electrons
 Dipole moment (field-independent basis, Debye):
    X=              0.7028    Y=              1.9183    Z=              0.6015  Tot=              2.1297
 Quadrupole moment (field-independent basis, Debye-Ang):
   XX=            -70.9243   YY=            -77.1268   ZZ=            -70.0515
   XY=              0.1731   XZ=             -0.2486   YZ=             -2.5451
 Traceless Quadrupole moment (field-independent basis, Debye-Ang):
   XX=              1.7766   YY=             -4.4259   ZZ=              2.6494
   XY=              0.1731   XZ=             -0.2486   YZ=             -2.5451
 Octapole moment (field-independent basis, Debye-Ang**2):
  XXX=              7.1863  YYY=              5.6143  ZZZ=             -4.8018  XYY=              2.5531
  XXY=             -2.5921  XXZ=             -2.2999  XZZ=              1.6181  YZZ=             -1.1628
  YYZ=              5.7291  XYZ=             -0.2027
 Hexadecapole moment (field-independent basis, Debye-Ang**3):
 XXXX=          -1894.3125 YYYY=           -690.6551 ZZZZ=           -302.8246 XXXY=              4.3774
 XXXZ=             14.9910 YYYX=              1.7082 YYYZ=            -13.3826 ZZZX=             -1.9928
 ZZZY=             10.2694 XXYY=           -432.8063 XXZZ=           -371.9100 YYZZ=           -169.6815
 XXYZ=              2.2494 YYXZ=             -0.7896 ZZXY=             -1.3123
 N-N= 6.974199300998D+02 E-N=-2.480062834900D+03  KE= 4.636917473507D+02
 1\1\GINC-COMPUTE-10-2\SP\RmPW1PW91\6-31+G(d,p)\C10H20O1\ASAROTTI.IQUIR
 \19-Sep-2024\0\\# mPW1PW91/6-31+G** nmr scrf=(pcm,solvent=benzene)\\co
 mment\\0,1\C,0,-2.357008,0.264187,-0.444324\C,0,-0.118906,-1.079804,-0
 .387946\C,0,-0.152792,1.364712,0.290134\C,0,0.691754,0.240465,-0.35089
 \C,0,-1.509859,1.552363,-0.408845\C,0,-1.509374,-0.89069,-1.021721\C,0
 ,-3.008676,-0.049175,0.914777\O,0,-0.185282,-1.718701,0.894403\C,0,2.0
 84018,0.073015,0.31577\C,0,2.934638,1.350805,0.210076\C,0,2.869748,-1.
 117314,-0.260146\H,0,-3.186031,0.430709,-1.146684\H,0,0.420092,-1.8051
 5,-1.005023\H,0,0.394161,2.312434,0.259292\H,0,-0.303725,1.150058,1.35
 9963\H,0,0.861731,0.522325,-1.40387\H,0,-1.323768,1.881094,-1.441594\H
 ,0,-2.072283,2.361383,0.076254\H,0,-1.355658,-0.695903,-2.09347\H,0,-2
 .052234,-1.841192,-0.94925\H,0,-3.737586,0.727218,1.176726\H,0,-3.5344
 13,-1.010184,0.889092\H,0,-2.289637,-0.095226,1.741079\H,0,-0.531721,-
 1.079403,1.534261\H,0,1.914635,-0.134324,1.381943\H,0,3.101977,1.62744
 2,-0.839625\H,0,2.476104,2.20816,0.71267\H,0,3.917996,1.193917,0.66855
 1\H,0,2.989502,-1.026257,-1.348412\H,0,2.37761,-2.069728,-0.045566\H,0
 ,3.874246,-1.159154,0.177122\\Version=AM64L-G09RevC.01\State=1-A\HF=-4
 68.2785425\RMSD=3.936e-09\Dipole=-0.2765031,0.7547155,-0.2366666\Quadr
 upole=1.3208406,-3.2905709,1.9697303,-0.1286701,-0.1847926,1.8921965\P
 G=C01 [X(C10H20O1)]\\@


 IF THERE IS ONE WAY BETTER THAN ANOTHER IT IS THE WAY OF NATURE.

                          -- ARISTOTLE
 Job cpu time:  0 days  0 hours 10 minutes  7.2 seconds.
 File lengths (MBytes):  RWF=    120 Int=      0 D2E=      0 Chk=      7 Scr=      1
 Normal termination of Gaussian 09 at Thu Sep 19 10:09:18 2024.
