 Entering Gaussian System, Link 0=g09
 Input=/home/asarotti.iquir/SCF2/04_Mentol04_OptB_NMR_benzene.gjc
 Output=/home/asarotti.iquir/SCF2/04_Mentol04_OptB_NMR_benzene.log
 Initial command:
 /opt/ohpc/pub/apps/software/Gaussian/09/EM64T.SSE4.2-enabled/g09/l1.exe /local/asarotti.iquir/Gau-995368.inp -scrdir=/local/asarotti.iquir/
 Entering Link 1 = /opt/ohpc/pub/apps/software/Gaussian/09/EM64T.SSE4.2-enabled/g09/l1.exe PID=    995369.
  
 Copyright (c) 1988,1990,1992,1993,1995,1998,2003,2009,2011,
            Gaussian, Inc.  All Rights Reserved.
  
 This is part of the Gaussian(R) 09 program.  It is based on
 the Gaussian(R) 03 system (copyright 2003, Gaussian, Inc.),
 the Gaussian(R) 98 system (copyright 1998, Gaussian, Inc.),
 the Gaussian(R) 94 system (copyright 1995, Gaussian, Inc.),
 the Gaussian 92(TM) system (copyright 1992, Gaussian, Inc.),
 the Gaussian 90(TM) system (copyright 1990, Gaussian, Inc.),
 the Gaussian 88(TM) system (copyright 1988, Gaussian, Inc.),
 the Gaussian 86(TM) system (copyright 1986, Carnegie Mellon
 University), and the Gaussian 82(TM) system (copyright 1983,
 Carnegie Mellon University). Gaussian is a federally registered
 trademark of Gaussian, Inc.
  
 This software contains proprietary and confidential information,
 including trade secrets, belonging to Gaussian, Inc.
  
 This software is provided under written license and may be
 used, copied, transmitted, or stored only in accord with that
 written license.
  
 The following legend is applicable only to US Government
 contracts under FAR:
  
                    RESTRICTED RIGHTS LEGEND
  
 Use, reproduction and disclosure by the US Government is
 subject to restrictions as set forth in subparagraphs (a)
 and (c) of the Commercial Computer Software - Restricted
 Rights clause in FAR 52.227-19.
  
 Gaussian, Inc.
 340 Quinnipiac St., Bldg. 40, Wallingford CT 06492
  
  
 ---------------------------------------------------------------
 Warning -- This program may not be used in any manner that
 competes with the business of Gaussian, Inc. or will provide
 assistance to any competitor of Gaussian, Inc.  The licensee
 of this program is prohibited from giving any competitor of
 Gaussian, Inc. access to this program.  By using this program,
 the user acknowledges that Gaussian, Inc. is engaged in the
 business of creating and licensing software in the field of
 computational chemistry and represents and warrants to the
 licensee that it is not a competitor of Gaussian, Inc. and that
 it will not use this program in any manner prohibited above.
 ---------------------------------------------------------------
  

 Cite this work as:
 Gaussian 09, Revision C.01,
 M. J. Frisch, G. W. Trucks, H. B. Schlegel, G. E. Scuseria, 
 M. A. Robb, J. R. Cheeseman, G. Scalmani, V. Barone, B. Mennucci, 
 G. A. Petersson, H. Nakatsuji, M. Caricato, X. Li, H. P. Hratchian, 
 A. F. Izmaylov, J. Bloino, G. Zheng, J. L. Sonnenberg, M. Hada, 
 M. Ehara, K. Toyota, R. Fukuda, J. Hasegawa, M. Ishida, T. Nakajima, 
 Y. Honda, O. Kitao, H. Nakai, T. Vreven, J. A. Montgomery, Jr., 
 J. E. Peralta, F. Ogliaro, M. Bearpark, J. J. Heyd, E. Brothers, 
 K. N. Kudin, V. N. Staroverov, T. Keith, R. Kobayashi, J. Normand, 
 K. Raghavachari, A. Rendell, J. C. Burant, S. S. Iyengar, J. Tomasi, 
 M. Cossi, N. Rega, J. M. Millam, M. Klene, J. E. Knox, J. B. Cross, 
 V. Bakken, C. Adamo, J. Jaramillo, R. Gomperts, R. E. Stratmann, 
 O. Yazyev, A. J. Austin, R. Cammi, C. Pomelli, J. W. Ochterski, 
 R. L. Martin, K. Morokuma, V. G. Zakrzewski, G. A. Voth, 
 P. Salvador, J. J. Dannenberg, S. Dapprich, A. D. Daniels, 
 O. Farkas, J. B. Foresman, J. V. Ortiz, J. Cioslowski, 
 and D. J. Fox, Gaussian, Inc., Wallingford CT, 2010.
 
 ******************************************
 Gaussian 09:  EM64L-G09RevC.01 23-Sep-2011
                19-Sep-2024 
 ******************************************
 %nprocshared=4
 Will use up to    4 processors via shared memory.
 %mem=100mw
 --------------------------------------------------
 # mPW1PW91/6-31+G** nmr scrf=(pcm,solvent=benzene)
 --------------------------------------------------
 1/38=1/1;
 2/12=2,17=6,18=5,40=1/2;
 3/5=1,6=6,7=111,11=2,16=1,25=1,30=1,70=2201,72=12,74=-7/1,2,8,3;
 4//1;
 5/5=2,38=5,53=12/2;
 8/6=1,10=90,11=11/1;
 10/13=100,45=16/2;
 6/7=2,8=2,9=2,10=2,28=1/1;
 99/9=1/99;
 -------
 comment
 -------
 Charge =  0 Multiplicity = 1
 Symbolic Z-Matrix:
 6                    -2.16474  -0.05782   0.05613 
 6                    -0.05696   1.25883   0.61543 
 6                    -0.18999  -1.12128   1.27022 
 6                     0.79082  -0.03497   0.76181 
 6                    -1.36738  -1.3513    0.30899 
 6                    -1.22202   1.08637  -0.36078 
 6                    -3.28494  -0.2663   -0.9691 
 8                     0.66544   2.41975   0.19875 
 6                     1.60976  -0.45465  -0.49759 
 6                     2.15499  -1.89061  -0.38707 
 6                     2.78527   0.5009   -0.77767 
 1                    -2.63064   0.23061   1.0123 
 1                    -0.48862   1.45541   1.61335 
 1                    -0.58906  -0.7978    2.24263 
 1                     0.33805  -2.06034   1.46208 
 1                     1.52482   0.14215   1.5671 
 1                    -2.03482  -2.12256   0.71616 
 1                    -0.99735  -1.74127  -0.65052 
 1                    -1.77209   2.03407  -0.41345 
 1                    -0.82774   0.90112  -1.36922 
 1                    -3.97641  -1.0548   -0.6483 
 1                    -3.8668    0.65154  -1.11565 
 1                    -2.87449  -0.55933  -1.94408 
 1                     1.39648   2.54834   0.82359 
 1                     0.94748  -0.42341  -1.37321 
 1                     2.75534  -2.01781   0.52387 
 1                     1.36349  -2.64638  -0.37448 
 1                     2.80525  -2.11358  -1.24102 
 1                     3.47499   0.52813   0.078 
 1                     2.43998   1.51658  -0.97537 
 1                     3.35984   0.15629  -1.64595 
 
                          Input orientation:                          
 ---------------------------------------------------------------------
 Center     Atomic      Atomic             Coordinates (Angstroms)
 Number     Number       Type             X           Y           Z
 ---------------------------------------------------------------------
      1          6           0       -2.164740   -0.057824    0.056134
      2          6           0       -0.056962    1.258825    0.615430
      3          6           0       -0.189994   -1.121277    1.270220
      4          6           0        0.790818   -0.034969    0.761808
      5          6           0       -1.367384   -1.351295    0.308989
      6          6           0       -1.222022    1.086371   -0.360784
      7          6           0       -3.284936   -0.266301   -0.969102
      8          8           0        0.665436    2.419751    0.198745
      9          6           0        1.609763   -0.454650   -0.497592
     10          6           0        2.154987   -1.890609   -0.387066
     11          6           0        2.785272    0.500901   -0.777668
     12          1           0       -2.630639    0.230611    1.012300
     13          1           0       -0.488617    1.455414    1.613352
     14          1           0       -0.589061   -0.797802    2.242626
     15          1           0        0.338050   -2.060341    1.462078
     16          1           0        1.524816    0.142145    1.567104
     17          1           0       -2.034819   -2.122555    0.716155
     18          1           0       -0.997353   -1.741266   -0.650520
     19          1           0       -1.772091    2.034065   -0.413449
     20          1           0       -0.827736    0.901124   -1.369216
     21          1           0       -3.976414   -1.054801   -0.648298
     22          1           0       -3.866798    0.651541   -1.115647
     23          1           0       -2.874486   -0.559333   -1.944078
     24          1           0        1.396484    2.548340    0.823594
     25          1           0        0.947476   -0.423409   -1.373213
     26          1           0        2.755344   -2.017809    0.523872
     27          1           0        1.363494   -2.646376   -0.374484
     28          1           0        2.805248   -2.113582   -1.241023
     29          1           0        3.474994    0.528132    0.077996
     30          1           0        2.439975    1.516575   -0.975367
     31          1           0        3.359837    0.156287   -1.645951
 ---------------------------------------------------------------------
                    Distance matrix (angstroms):
                    1          2          3          4          5
     1  C    0.000000
     2  C    2.547372   0.000000
     3  C    2.550404   2.472111   0.000000
     4  C    3.038720   1.553725   1.549368   0.000000
     5  C    1.540383   2.936637   1.537244   2.568189   0.000000
     6  C    1.540039   1.529738   2.932399   2.563034   2.532181
     7  C    1.532779   3.905966   3.914615   4.434110   2.547103
     8  O    3.764122   1.429418   3.797196   2.521589   4.285475
     9  C    3.835486   2.636814   2.609344   1.559773   3.212157
    10  C    4.713339   3.977015   2.972777   2.573765   3.630764
    11  C    5.050744   3.254760   3.959484   2.575847   4.675041
    12  H    1.102048   2.799740   2.801941   3.440879   2.143102
    13  H    2.743029   1.104908   2.616534   2.140870   3.217330
    14  H    2.794831   2.675932   1.099756   2.163054   2.156639
    15  H    3.500102   3.448146   1.094295   2.190322   2.177353
    16  H    3.991972   2.157471   2.150569   1.103913   3.489704
    17  H    2.171548   3.918647   2.170927   3.513449   1.098224
    18  H    2.167055   3.389323   2.173812   2.846696   1.099844
    19  H    2.179606   2.145054   3.910749   3.497232   3.485164
    20  H    2.176875   2.158903   3.385771   2.835004   2.860242
    21  H    2.184571   4.723556   4.245245   5.074934   2.794878
    22  H    2.184782   4.228507   4.728016   5.068483   3.505426
    23  H    2.180848   4.218438   4.225398   4.585982   2.823981
    24  H    4.479219   1.954146   4.022745   2.654079   4.807384
    25  H    3.444209   2.791685   2.961181   2.175716   3.008214
    26  H    5.316723   4.319002   3.167936   2.801362   4.181782
    27  H    4.397098   4.271794   2.728425   2.904921   3.098720
    28  H    5.532589   4.797061   4.032677   3.519928   4.516024
    29  H    5.670134   3.646568   4.192146   2.826567   5.199445
    30  H    4.974548   2.971828   4.349444   2.853907   4.936621
    31  H    5.784798   4.243106   4.768388   3.526151   5.333030
                    6          7          8          9         10
     6  C    0.000000
     7  C    2.540745   0.000000
     8  O    2.377703   4.917741   0.000000
     9  C    3.226836   4.920963   3.104645   0.000000
    10  C    4.501921   5.707005   4.597950   1.539956   0.000000
    11  C    4.071237   6.121493   3.021435   1.540565   2.503827
    12  H    2.145201   2.144990   4.039594   4.553061   5.418488
    13  H    2.138057   4.177651   2.064678   3.536612   4.710221
    14  H    3.275438   4.226752   4.012961   3.530067   3.954656
    15  H    3.957076   4.717546   4.666306   2.834749   2.597961
    16  H    3.486178   5.452787   2.792567   2.150895   2.889288
    17  H    3.481040   2.801529   5.309579   4.187848   4.338821
    18  H    2.851307   2.740447   4.560722   2.911326   3.166853
    19  H    1.097029   2.808760   2.542651   4.199728   5.552090
    20  H    1.098505   2.749692   2.644672   2.922200   4.201789
    21  H    3.500565   1.096718   5.859758   5.620344   6.193617
    22  H    2.784553   1.096573   5.039379   5.621243   6.576872
    23  H    2.818829   1.097686   5.098792   4.712936   5.430670
    24  H    3.224388   5.749057   0.970259   3.287700   4.663185
    25  H    2.830401   4.254562   3.261006   1.098322   2.140851
    26  H    5.122303   6.463879   4.915828   2.190710   1.098370
    27  H    4.540758   5.256066   5.146020   2.208952   1.094442
    28  H    5.218565   6.369987   5.215634   2.175760   1.096266
    29  H    4.750381   6.886522   3.389162   2.185463   2.794460
    30  H    3.738049   5.996106   2.311548   2.191632   3.469325
    31  H    4.848726   6.692512   3.973156   2.180535   2.688166
                   11         12         13         14         15
    11  C    0.000000
    12  H    5.710441   0.000000
    13  H    4.164903   2.539619   0.000000
    14  H    4.711149   2.596031   2.341593   0.000000
    15  H    4.191100   3.776755   3.614802   1.750084   0.000000
    16  H    2.686152   4.193261   2.404314   2.410043   2.504074
    17  H    5.687469   2.445423   3.999696   2.485015   2.488128
    18  H    4.399060   3.053014   3.950024   3.070362   2.519560
    19  H    4.822116   2.454040   2.467806   4.058789   4.973375
    20  H    3.682925   3.061318   3.052532   3.998589   4.259760
    21  H    6.939549   2.494189   4.856024   4.460678   4.907076
    22  H    6.662354   2.496684   4.416532   4.911431   5.628474
    23  H    5.875157   3.069795   4.733591   4.775827   4.916840
    24  H    2.946995   4.650290   2.317717   4.141583   4.771570
    25  H    2.141616   4.349865   3.809450   3.946569   3.330138
    26  H    2.835278   5.856856   4.875810   3.953173   2.593328
    27  H    3.476976   5.114032   4.920009   3.752194   2.183560
    28  H    2.655300   6.334159   5.633359   5.038692   3.660144
    29  H    1.099372   6.183866   4.350561   4.791687   4.296079
    30  H    1.090829   5.596039   3.909202   4.988675   4.811814
    31  H    1.096722   6.554207   5.207820   5.623621   4.868725
                   16         17         18         19         20
    16  H    0.000000
    17  H    4.303950   0.000000
    18  H    3.850510   1.757702   0.000000
    19  H    4.286204   4.315382   3.861288   0.000000
    20  H    3.838297   3.866323   2.743632   1.757513   0.000000
    21  H    6.050142   2.602234   3.057130   3.802011   3.776180
    22  H    6.043686   3.795689   3.765048   2.606195   3.059818
    23  H    5.672242   3.197740   2.567856   3.206838   2.579261
    24  H    2.521716   5.796779   5.128761   3.440148   3.531132
    25  H    3.049367   4.018288   2.457924   3.788980   2.214900
    26  H    2.695911   4.795165   3.941879   6.147676   4.994238
    27  H    3.401711   3.607272   2.543427   5.633821   4.286693
    28  H    3.822746   5.220812   3.866146   6.232165   4.722654
    29  H    2.483873   6.147473   5.067819   5.480990   4.554891
    30  H    3.031622   6.010682   4.747028   4.280777   3.348407
    31  H    3.700165   6.314664   4.855584   5.601946   4.262292
                   21         22         23         24         25
    21  H    0.000000
    22  H    1.772578   0.000000
    23  H    1.771660   1.771213   0.000000
    24  H    6.634540   5.921203   5.963122   0.000000
    25  H    5.016857   4.939544   3.866750   3.722749   0.000000
    26  H    6.900575   7.325723   6.317667   4.773474   3.067479
    27  H    5.578772   6.227482   4.977936   5.331187   2.472269
    28  H    6.889360   7.223422   5.930376   5.289686   2.515050
    29  H    7.652232   7.439215   6.751834   2.992885   3.065907
    30  H    6.920188   6.367366   5.787166   2.321567   2.479793
    31  H    7.502175   7.262971   6.282338   3.959208   2.495981
                   26         27         28         29         30
    26  H    0.000000
    27  H    1.771831   0.000000
    28  H    1.768196   1.764487   0.000000
    29  H    2.683005   3.839358   3.027709   0.000000
    30  H    3.852148   4.341662   3.658147   1.777036   0.000000
    31  H    3.130533   3.668369   2.371464   1.767349   1.773757
                   31
    31  H    0.000000
 Stoichiometry    C10H20O
 Framework group  C1[X(C10H20O)]
 Deg. of freedom    87
 Full point group                 C1      NOp   1
 Largest Abelian subgroup         C1      NOp   1
 Largest concise Abelian subgroup C1      NOp   1
                         Standard orientation:                         
 ---------------------------------------------------------------------
 Center     Atomic      Atomic             Coordinates (Angstroms)
 Number     Number       Type             X           Y           Z
 ---------------------------------------------------------------------
      1          6           0       -2.164740   -0.057824    0.056134
      2          6           0       -0.056962    1.258825    0.615430
      3          6           0       -0.189994   -1.121277    1.270220
      4          6           0        0.790818   -0.034969    0.761808
      5          6           0       -1.367384   -1.351295    0.308989
      6          6           0       -1.222022    1.086371   -0.360784
      7          6           0       -3.284936   -0.266301   -0.969102
      8          8           0        0.665436    2.419751    0.198745
      9          6           0        1.609763   -0.454650   -0.497592
     10          6           0        2.154987   -1.890609   -0.387066
     11          6           0        2.785272    0.500901   -0.777668
     12          1           0       -2.630639    0.230611    1.012300
     13          1           0       -0.488617    1.455414    1.613352
     14          1           0       -0.589061   -0.797802    2.242626
     15          1           0        0.338050   -2.060341    1.462078
     16          1           0        1.524816    0.142145    1.567104
     17          1           0       -2.034819   -2.122555    0.716155
     18          1           0       -0.997353   -1.741266   -0.650520
     19          1           0       -1.772091    2.034065   -0.413449
     20          1           0       -0.827736    0.901124   -1.369216
     21          1           0       -3.976414   -1.054801   -0.648298
     22          1           0       -3.866798    0.651541   -1.115647
     23          1           0       -2.874486   -0.559333   -1.944078
     24          1           0        1.396484    2.548340    0.823594
     25          1           0        0.947476   -0.423409   -1.373213
     26          1           0        2.755344   -2.017809    0.523872
     27          1           0        1.363494   -2.646376   -0.374484
     28          1           0        2.805248   -2.113582   -1.241023
     29          1           0        3.474994    0.528132    0.077996
     30          1           0        2.439975    1.516575   -0.975367
     31          1           0        3.359837    0.156287   -1.645951
 ---------------------------------------------------------------------
 Rotational constants (GHZ):      1.4558815      0.8191526      0.6406547
 Standard basis: 6-31+G(d,p) (6D, 7F)
 There are   309 symmetry adapted basis functions of A   symmetry.
 Integral buffers will be    131072 words long.
 Raffenetti 2 integral format.
 Two-electron integral symmetry is turned on.
   309 basis functions,   492 primitive gaussians,   309 cartesian basis functions
    44 alpha electrons       44 beta electrons
       nuclear repulsion energy       696.1995906471 Hartrees.
 NAtoms=   31 NActive=   31 NUniq=   31 SFac= 1.00D+00 NAtFMM=   60 NAOKFM=F Big=F
 ------------------------------------------------------------------------------
 Polarizable Continuum Model (PCM)
 =================================
 Model                : PCM.
 Atomic radii         : UFF (Universal Force Field).
 Polarization charges : Total charges.
 Charge compensation  : None.
 Solution method      : Matrix inversion.
 Cavity type          : Scaled VdW (van der Waals Surface) (Alpha=1.100).
 Cavity algorithm     : GePol (No added spheres)
                        Default sphere list used, NSphG=   31.
                        Lebedev-Laikov grids with approx.  5.0 points / Ang**2.
                        Smoothing algorithm: Karplus/York (Gamma=1.0000).
                        Polarization charges: spherical gaussians, with
                                              point-specific exponents (IZeta= 3).
                        Self-potential: point-specific (ISelfS= 7).
                        Self-field    : sphere-specific E.n sum rule (ISelfD= 2).
 Solvent              : Benzene, Eps=   2.270600 Eps(inf)=   2.253301
 ------------------------------------------------------------------------------
 One-electron integrals computed using PRISM.
 NBasis=   309 RedAO= T  NBF=   309
 NBsUse=   309 1.00D-06 NBFU=   309
 Harris functional with IExCor=  908 diagonalized for initial guess.
 ExpMin= 4.38D-02 ExpMax= 5.48D+03 ExpMxC= 8.25D+02 IAcc=2 IRadAn=         4 AccDes= 0.00D+00
 HarFok:  IExCor=  908 AccDes= 0.00D+00 IRadAn=         4 IDoV= 1
 ScaDFX=  1.000000  1.000000  1.000000  1.000000
 FoFCou: FMM=F IPFlag=           0 FMFlag=      100000 FMFlg1=           0
         NFxFlg=           0 DoJE=T BraDBF=F KetDBF=T FulRan=T
         Omega=  0.000000  0.000000  1.000000  0.000000  0.000000 ICntrl=     500 IOpCl=  0
         NMat0=    1 NMatS0=    1 NMatT0=    0 NMatD0=    1 NMtDS0=    0 NMtDT0=    0
         I1Cent=           4 NGrid=           0.
 Petite list used in FoFCou.
 Initial guess orbital symmetries:
       Occupied  (A) (A) (A) (A) (A) (A) (A) (A) (A) (A) (A) (A)
                 (A) (A) (A) (A) (A) (A) (A) (A) (A) (A) (A) (A)
                 (A) (A) (A) (A) (A) (A) (A) (A) (A) (A) (A) (A)
                 (A) (A) (A) (A) (A) (A) (A) (A)
       Virtual   (A) (A) (A) (A) (A) (A) (A) (A) (A) (A) (A) (A)
                 (A) (A) (A) (A) (A) (A) (A) (A) (A) (A) (A) (A)
                 (A) (A) (A) (A) (A) (A) (A) (A) (A) (A) (A) (A)
                 (A) (A) (A) (A) (A) (A) (A) (A) (A) (A) (A) (A)
                 (A) (A) (A) (A) (A) (A) (A) (A) (A) (A) (A) (A)
                 (A) (A) (A) (A) (A) (A) (A) (A) (A) (A) (A) (A)
                 (A) (A) (A) (A) (A) (A) (A) (A) (A) (A) (A) (A)
                 (A) (A) (A) (A) (A) (A) (A) (A) (A) (A) (A) (A)
                 (A) (A) (A) (A) (A) (A) (A) (A) (A) (A) (A) (A)
                 (A) (A) (A) (A) (A) (A) (A) (A) (A) (A) (A) (A)
                 (A) (A) (A) (A) (A) (A) (A) (A) (A) (A) (A) (A)
                 (A) (A) (A) (A) (A) (A) (A) (A) (A) (A) (A) (A)
                 (A) (A) (A) (A) (A) (A) (A) (A) (A) (A) (A) (A)
                 (A) (A) (A) (A) (A) (A) (A) (A) (A) (A) (A) (A)
                 (A) (A) (A) (A) (A) (A) (A) (A) (A) (A) (A) (A)
                 (A) (A) (A) (A) (A) (A) (A) (A) (A) (A) (A) (A)
                 (A) (A) (A) (A) (A) (A) (A) (A) (A) (A) (A) (A)
                 (A) (A) (A) (A) (A) (A) (A) (A) (A) (A) (A) (A)
                 (A) (A) (A) (A) (A) (A) (A) (A) (A) (A) (A) (A)
                 (A) (A) (A) (A) (A) (A) (A) (A) (A) (A) (A) (A)
                 (A) (A) (A) (A) (A) (A) (A) (A) (A) (A) (A) (A)
                 (A) (A) (A) (A) (A) (A) (A) (A) (A) (A) (A) (A)
                 (A)
 The electronic state of the initial guess is 1-A.
 Requested convergence on RMS density matrix=1.00D-08 within 128 cycles.
 Requested convergence on MAX density matrix=1.00D-06.
 Requested convergence on             energy=1.00D-06.
 No special actions if energy rises.
 Error on total polarization charges =  0.00935
 SCF Done:  E(RmPW1PW91) =  -468.279336404     A.U. after   12 cycles
             Convg  =    0.7978D-08             -V/T =  2.0099
 Range of M.O.s used for correlation:     1   309
 NBasis=   309 NAE=    44 NBE=    44 NFC=     0 NFV=     0
 NROrb=    309 NOA=    44 NOB=    44 NVA=   265 NVB=   265

 **** Warning!!: The largest alpha MO coefficient is  0.70091296D+02

 NEqPCM:  Using equilibrium solvation (IEInf=0, Eps=   2.2706, EpsInf=   2.2533)
          Differentiating once with respect to magnetic field using GIAOs.
          Electric field/nuclear overlap derivatives assumed to be zero.
 FoFCou: FMM=F IPFlag=           0 FMFlag=    10101102 FMFlg1=           0
         NFxFlg=    40000000 DoJE=F BraDBF=F KetDBF=T FulRan=T
         Omega=  0.000000  0.000000  1.000000  0.000000  0.000000 ICntrl=    6100 IOpCl=  0
         NMat0=    1 NMatS0=    1 NMatT0=    0 NMatD0=    1 NMtDS0=    0 NMtDT0=    0
         I1Cent=           7 NGrid=        1910.
 Symmetry not used in FoFCou.
          There are     3 degrees of freedom in the 1st order CPHF.  IDoFFX=0.
      3 vectors produced by pass  0 Test12= 3.89D-13 3.33D-08 XBig12= 2.93D+01 9.25D-01.
 AX will form     3 AO Fock derivatives at one time.
      3 vectors produced by pass  1 Test12= 3.89D-13 3.33D-08 XBig12= 6.24D-02 4.01D-02.
      3 vectors produced by pass  2 Test12= 3.89D-13 3.33D-08 XBig12= 1.70D-04 3.56D-03.
      3 vectors produced by pass  3 Test12= 3.89D-13 3.33D-08 XBig12= 6.60D-07 1.88D-04.
      3 vectors produced by pass  4 Test12= 3.89D-13 3.33D-08 XBig12= 9.58D-10 4.15D-06.
      3 vectors produced by pass  5 Test12= 3.89D-13 3.33D-08 XBig12= 2.18D-12 2.02D-07.
 Inverted reduced A of dimension    18 with in-core refinement.
 Calculating GIAO nuclear magnetic shielding tensors.
 SCF GIAO Magnetic shielding tensor (ppm):
      1  C    Isotropic =   161.3536   Anisotropy =     8.6993
   XX=   162.2601   YX=    -2.6279   ZX=     2.2994
   XY=    -2.8633   YY=   161.7403   ZY=    -2.7042
   XZ=     5.9042   YZ=    -0.2156   ZZ=   160.0604
   Eigenvalues:   156.8443   160.0634   167.1531
      2  C    Isotropic =   118.8017   Anisotropy =    47.8343
   XX=   123.1853   YX=    15.8127   ZX=   -10.6815
   XY=    14.2250   YY=   133.3304   ZY=   -10.1262
   XZ=   -14.8625   YZ=   -16.4741   ZZ=    99.8894
   Eigenvalues:    93.0151   112.6988   150.6912
      3  C    Isotropic =   165.9943   Anisotropy =    15.1102
   XX=   172.9351   YX=     6.6764   ZX=     0.0239
   XY=     6.1732   YY=   162.1939   ZY=    -1.0970
   XZ=     2.9837   YZ=     0.8306   ZZ=   162.8539
   Eigenvalues:   159.0362   162.8789   176.0677
      4  C    Isotropic =   146.3520   Anisotropy =    15.7222
   XX=   151.4412   YX=    -5.9494   ZX=    -6.8868
   XY=    -0.5550   YY=   139.6487   ZY=     5.6350
   XZ=     0.6203   YZ=    11.3001   ZZ=   147.9662
   Eigenvalues:   134.2982   147.9243   156.8334
      5  C    Isotropic =   165.8321   Anisotropy =    23.3219
   XX=   167.0738   YX=    -8.4941   ZX=     9.0987
   XY=   -10.7875   YY=   169.7448   ZY=    -6.0451
   XZ=     3.5718   YZ=    -4.5956   ZZ=   160.6778
   Eigenvalues:   156.7192   159.3972   181.3801
      6  C    Isotropic =   158.0094   Anisotropy =    36.4927
   XX=   165.1848   YX=    20.7373   ZX=     7.7049
   XY=    17.1325   YY=   160.7514   ZY=    -4.8418
   XZ=     4.5808   YZ=     0.6483   ZZ=   148.0921
   Eigenvalues:   139.8924   151.7979   182.3379
      7  C    Isotropic =   173.2080   Anisotropy =    37.7922
   XX=   183.8773   YX=     2.5704   ZX=    16.2912
   XY=     4.5872   YY=   163.5262   ZY=     1.6401
   XZ=    21.7987   YZ=     1.8117   ZZ=   172.2205
   Eigenvalues:   158.0249   163.1963   198.4028
      8  O    Isotropic =   265.1401   Anisotropy =    76.7120
   XX=   295.0178   YX=    22.2423   ZX=    28.8888
   XY=     7.7052   YY=   255.2753   ZY=     5.5806
   XZ=    35.2565   YZ=    17.0546   ZZ=   245.1270
   Eigenvalues:   228.8626   250.2762   316.2814
      9  C    Isotropic =   168.0409   Anisotropy =    10.8251
   XX=   168.6686   YX=    -1.7321   ZX=    -8.4824
   XY=    -0.3706   YY=   171.7253   ZY=    -0.5737
   XZ=    -8.9023   YZ=    -1.2890   ZZ=   163.7287
   Eigenvalues:   157.0331   171.8319   175.2576
     10  C    Isotropic =   173.6897   Anisotropy =    30.1944
   XX=   167.1781   YX=   -12.3603   ZX=    -2.9464
   XY=    -5.3683   YY=   190.8081   ZY=    -2.3047
   XZ=    -5.3004   YZ=    -3.1661   ZZ=   163.0828
   Eigenvalues:   158.8152   168.4346   193.8193
     11  C    Isotropic =   172.0252   Anisotropy =    35.8031
   XX=   179.7515   YX=    18.9363   ZX=   -10.8621
   XY=    13.7303   YY=   174.3082   ZY=    -2.6181
   XZ=    -9.6252   YZ=    -0.1910   ZZ=   162.0160
   Eigenvalues:   154.7113   165.4704   195.8940
     12  H    Isotropic =    30.0625   Anisotropy =     7.5966
   XX=    31.8889   YX=    -1.2811   ZX=    -3.0282
   XY=    -0.5506   YY=    26.7501   ZY=     1.6341
   XZ=    -3.0547   YZ=     1.4859   ZZ=    31.5484
   Eigenvalues:    26.2874    28.7731    35.1269
     13  H    Isotropic =    27.6227   Anisotropy =     4.4081
   XX=    25.9620   YX=     0.8361   ZX=    -2.9209
   XY=     1.6361   YY=    28.6873   ZY=     1.3583
   XZ=    -2.0498   YZ=     2.4607   ZZ=    28.2187
   Eigenvalues:    23.5081    28.7985    30.5614
     14  H    Isotropic =    30.3890   Anisotropy =     9.1473
   XX=    28.4419   YX=     1.0387   ZX=    -1.4679
   XY=     0.8642   YY=    26.6509   ZY=    -1.2800
   XZ=    -1.6629   YZ=    -0.4033   ZZ=    36.0741
   Eigenvalues:    26.2371    28.4426    36.4871
     15  H    Isotropic =    29.7147   Anisotropy =     7.7651
   XX=    29.9828   YX=    -2.1805   ZX=     0.1114
   XY=    -2.7768   YY=    31.6223   ZY=    -3.5271
   XZ=     0.0211   YZ=    -4.1084   ZZ=    27.5390
   Eigenvalues:    24.9248    29.3279    34.8914
     16  H    Isotropic =    30.4164   Anisotropy =     6.0050
   XX=    30.9123   YX=     1.7383   ZX=     1.5822
   XY=     0.9001   YY=    27.9595   ZY=     1.0045
   XZ=     2.7803   YZ=     1.3992   ZZ=    32.3775
   Eigenvalues:    27.4213    29.4083    34.4198
     17  H    Isotropic =    30.3486   Anisotropy =     9.7449
   XX=    31.3038   YX=     3.6249   ZX=    -0.0740
   XY=     4.2514   YY=    32.9697   ZY=    -3.1630
   XZ=     0.0216   YZ=    -3.3863   ZZ=    26.7722
   Eigenvalues:    24.8946    29.3060    36.8452
     18  H    Isotropic =    30.5639   Anisotropy =     4.8527
   XX=    31.7601   YX=    -0.4066   ZX=     0.6774
   XY=    -0.7368   YY=    29.8609   ZY=     4.1500
   XZ=     0.1423   YZ=     3.5025   ZZ=    30.0706
   Eigenvalues:    26.0533    31.8394    33.7990
     19  H    Isotropic =    29.8894   Anisotropy =     8.0222
   XX=    30.4166   YX=    -1.8921   ZX=     1.3451
   XY=    -2.3139   YY=    34.1157   ZY=    -0.6511
   XZ=     1.4153   YZ=    -0.9619   ZZ=    25.1357
   Eigenvalues:    24.7874    29.6431    35.2375
     20  H    Isotropic =    30.1960   Anisotropy =     3.4190
   XX=    31.1367   YX=    -0.4055   ZX=     0.1637
   XY=     0.1001   YY=    27.2788   ZY=    -1.5144
   XZ=    -0.3953   YZ=    -0.9746   ZZ=    32.1726
   Eigenvalues:    26.9731    31.1396    32.4754
     21  H    Isotropic =    30.5501   Anisotropy =    10.7294
   XX=    34.8968   YX=     4.9639   ZX=     0.5045
   XY=     4.4395   YY=    29.7650   ZY=    -1.1787
   XZ=     1.2350   YZ=    -0.1467   ZZ=    26.9885
   Eigenvalues:    25.9607    27.9867    37.7030
     22  H    Isotropic =    30.5592   Anisotropy =    10.6807
   XX=    33.7936   YX=    -4.5793   ZX=     3.1682
   XY=    -3.5459   YY=    30.5921   ZY=    -0.7328
   XZ=     3.2588   YZ=    -1.9200   ZZ=    27.2918
   Eigenvalues:    25.9341    28.0638    37.6796
     23  H    Isotropic =    30.8684   Anisotropy =     7.8571
   XX=    29.8130   YX=     0.2908   ZX=     1.8000
   XY=     0.0609   YY=    27.5477   ZY=     2.2397
   XZ=     0.7805   YZ=     2.2095   ZZ=    35.2445
   Eigenvalues:    26.9410    29.5578    36.1065
     24  H    Isotropic =    30.9271   Anisotropy =    15.7905
   XX=    34.0578   YX=     4.7534   ZX=     7.6031
   XY=     5.7883   YY=    30.2885   ZY=     2.3709
   XZ=     6.3086   YZ=     1.5710   ZZ=    28.4349
   Eigenvalues:    23.3951    27.9321    41.4541
     25  H    Isotropic =    29.5074   Anisotropy =     5.5777
   XX=    31.7214   YX=    -1.2523   ZX=     1.7152
   XY=    -1.0051   YY=    26.3596   ZY=     0.3003
   XZ=     2.1489   YZ=    -0.1048   ZZ=    30.4413
   Eigenvalues:    26.0711    29.2253    33.2259
     26  H    Isotropic =    31.0244   Anisotropy =     8.7832
   XX=    31.8656   YX=    -3.1061   ZX=     2.9654
   XY=    -3.5685   YY=    30.3238   ZY=    -2.7265
   XZ=     2.7269   YZ=    -2.2002   ZZ=    30.8837
   Eigenvalues:    27.6488    28.5446    36.8798
     27  H    Isotropic =    30.3529   Anisotropy =     8.1744
   XX=    30.5628   YX=     1.1721   ZX=    -1.4446
   XY=     2.2697   YY=    35.2062   ZY=     1.1624
   XZ=    -1.7100   YZ=     0.9926   ZZ=    25.2899
   Eigenvalues:    24.6360    30.6203    35.8026
     28  H    Isotropic =    30.8406   Anisotropy =    10.2420
   XX=    30.4638   YX=    -2.6586   ZX=    -4.4987
   XY=    -3.3956   YY=    31.1134   ZY=     3.2926
   XZ=    -3.9653   YZ=     2.6152   ZZ=    30.9445
   Eigenvalues:    26.4539    28.3994    37.6686
     29  H    Isotropic =    31.1475   Anisotropy =     8.3412
   XX=    35.0882   YX=     1.8272   ZX=     2.9961
   XY=     2.3192   YY=    28.8508   ZY=     1.2334
   XZ=     1.9786   YZ=     0.7964   ZZ=    29.5034
   Eigenvalues:    28.0905    28.6437    36.7083
     30  H    Isotropic =    29.3045   Anisotropy =     7.4785
   XX=    29.3717   YX=    -0.1918   ZX=    -3.6453
   XY=    -1.6484   YY=    33.9214   ZY=    -1.9767
   XZ=    -3.0940   YZ=    -1.6901   ZZ=    24.6204
   Eigenvalues:    22.5046    31.1188    34.2902
     31  H    Isotropic =    30.7657   Anisotropy =    10.7345
   XX=    32.0940   YX=    -0.0523   ZX=    -6.2177
   XY=     1.1772   YY=    28.0792   ZY=    -0.1331
   XZ=    -5.3893   YZ=     0.3937   ZZ=    32.1241
   Eigenvalues:    26.1785    28.1967    37.9221
 End of Minotr Frequency-dependent properties file   721 does not exist.
 End of Minotr Frequency-dependent properties file   722 does not exist.

 **********************************************************************

            Population analysis using the SCF density.

 **********************************************************************

 Orbital symmetries:
       Occupied  (A) (A) (A) (A) (A) (A) (A) (A) (A) (A) (A) (A)
                 (A) (A) (A) (A) (A) (A) (A) (A) (A) (A) (A) (A)
                 (A) (A) (A) (A) (A) (A) (A) (A) (A) (A) (A) (A)
                 (A) (A) (A) (A) (A) (A) (A) (A)
       Virtual   (A) (A) (A) (A) (A) (A) (A) (A) (A) (A) (A) (A)
                 (A) (A) (A) (A) (A) (A) (A) (A) (A) (A) (A) (A)
                 (A) (A) (A) (A) (A) (A) (A) (A) (A) (A) (A) (A)
                 (A) (A) (A) (A) (A) (A) (A) (A) (A) (A) (A) (A)
                 (A) (A) (A) (A) (A) (A) (A) (A) (A) (A) (A) (A)
                 (A) (A) (A) (A) (A) (A) (A) (A) (A) (A) (A) (A)
                 (A) (A) (A) (A) (A) (A) (A) (A) (A) (A) (A) (A)
                 (A) (A) (A) (A) (A) (A) (A) (A) (A) (A) (A) (A)
                 (A) (A) (A) (A) (A) (A) (A) (A) (A) (A) (A) (A)
                 (A) (A) (A) (A) (A) (A) (A) (A) (A) (A) (A) (A)
                 (A) (A) (A) (A) (A) (A) (A) (A) (A) (A) (A) (A)
                 (A) (A) (A) (A) (A) (A) (A) (A) (A) (A) (A) (A)
                 (A) (A) (A) (A) (A) (A) (A) (A) (A) (A) (A) (A)
                 (A) (A) (A) (A) (A) (A) (A) (A) (A) (A) (A) (A)
                 (A) (A) (A) (A) (A) (A) (A) (A) (A) (A) (A) (A)
                 (A) (A) (A) (A) (A) (A) (A) (A) (A) (A) (A) (A)
                 (A) (A) (A) (A) (A) (A) (A) (A) (A) (A) (A) (A)
                 (A) (A) (A) (A) (A) (A) (A) (A) (A) (A) (A) (A)
                 (A) (A) (A) (A) (A) (A) (A) (A) (A) (A) (A) (A)
                 (A) (A) (A) (A) (A) (A) (A) (A) (A) (A) (A) (A)
                 (A) (A) (A) (A) (A) (A) (A) (A) (A) (A) (A) (A)
                 (A) (A) (A) (A) (A) (A) (A) (A) (A) (A) (A) (A)
                 (A)
 The electronic state is 1-A.
 Alpha  occ. eigenvalues --  -19.24528 -10.29546 -10.25147 -10.25107 -10.25104
 Alpha  occ. eigenvalues --  -10.24268 -10.24035 -10.23698 -10.23336 -10.23246
 Alpha  occ. eigenvalues --  -10.22655  -1.05092  -0.86256  -0.81918  -0.76853
 Alpha  occ. eigenvalues --   -0.75541  -0.69898  -0.69487  -0.62498  -0.61945
 Alpha  occ. eigenvalues --   -0.59479  -0.54735  -0.51976  -0.49317  -0.46524
 Alpha  occ. eigenvalues --   -0.46166  -0.45551  -0.43935  -0.43076  -0.41345
 Alpha  occ. eigenvalues --   -0.40060  -0.38992  -0.38941  -0.38371  -0.37800
 Alpha  occ. eigenvalues --   -0.36182  -0.35212  -0.34511  -0.33859  -0.33363
 Alpha  occ. eigenvalues --   -0.31754  -0.31586  -0.30283  -0.27505
 Alpha virt. eigenvalues --    0.00656   0.01512   0.02018   0.02258   0.04047
 Alpha virt. eigenvalues --    0.04288   0.04840   0.05087   0.05317   0.06768
 Alpha virt. eigenvalues --    0.07184   0.07421   0.08134   0.08241   0.09183
 Alpha virt. eigenvalues --    0.09798   0.09932   0.11068   0.11301   0.11794
 Alpha virt. eigenvalues --    0.12298   0.12621   0.13296   0.13950   0.15138
 Alpha virt. eigenvalues --    0.15293   0.15706   0.16051   0.16139   0.17028
 Alpha virt. eigenvalues --    0.17671   0.18415   0.19148   0.19733   0.20346
 Alpha virt. eigenvalues --    0.20689   0.20796   0.20904   0.21491   0.22550
 Alpha virt. eigenvalues --    0.23119   0.23432   0.23815   0.24455   0.24583
 Alpha virt. eigenvalues --    0.24878   0.25768   0.26148   0.26510   0.27398
 Alpha virt. eigenvalues --    0.28161   0.28523   0.28546   0.29221   0.30074
 Alpha virt. eigenvalues --    0.30975   0.31392   0.32016   0.32641   0.32942
 Alpha virt. eigenvalues --    0.34561   0.34912   0.35741   0.36255   0.36704
 Alpha virt. eigenvalues --    0.37340   0.38533   0.39920   0.40901   0.41554
 Alpha virt. eigenvalues --    0.42940   0.43917   0.49023   0.49648   0.54682
 Alpha virt. eigenvalues --    0.62495   0.63671   0.64545   0.65479   0.67229
 Alpha virt. eigenvalues --    0.67729   0.69288   0.69930   0.71001   0.72553
 Alpha virt. eigenvalues --    0.73914   0.73995   0.75331   0.75542   0.77079
 Alpha virt. eigenvalues --    0.78640   0.80287   0.81845   0.83125   0.84743
 Alpha virt. eigenvalues --    0.85731   0.88569   0.89742   0.90497   0.90531
 Alpha virt. eigenvalues --    0.95302   0.96619   0.99100   0.99972   1.00507
 Alpha virt. eigenvalues --    1.01749   1.02619   1.03447   1.04154   1.05078
 Alpha virt. eigenvalues --    1.05717   1.08484   1.09155   1.10250   1.10707
 Alpha virt. eigenvalues --    1.12412   1.13915   1.16168   1.16474   1.16955
 Alpha virt. eigenvalues --    1.18093   1.18604   1.18667   1.20597   1.21110
 Alpha virt. eigenvalues --    1.25561   1.25847   1.26967   1.27982   1.33842
 Alpha virt. eigenvalues --    1.36106   1.37585   1.40727   1.42278   1.45231
 Alpha virt. eigenvalues --    1.48650   1.50532   1.54415   1.55980   1.56597
 Alpha virt. eigenvalues --    1.59212   1.60592   1.63284   1.65555   1.66144
 Alpha virt. eigenvalues --    1.68951   1.71109   1.72943   1.77991   1.80177
 Alpha virt. eigenvalues --    1.81834   1.84991   1.86433   1.87314   1.87967
 Alpha virt. eigenvalues --    1.89342   1.90522   1.91104   1.91918   1.94139
 Alpha virt. eigenvalues --    1.96760   1.97767   1.99815   2.00484   2.02382
 Alpha virt. eigenvalues --    2.05209   2.05486   2.06072   2.07293   2.08477
 Alpha virt. eigenvalues --    2.10279   2.11645   2.12892   2.14369   2.15005
 Alpha virt. eigenvalues --    2.16619   2.18205   2.18348   2.19297   2.20928
 Alpha virt. eigenvalues --    2.21030   2.22872   2.23127   2.25816   2.30195
 Alpha virt. eigenvalues --    2.31514   2.33768   2.34071   2.36491   2.38004
 Alpha virt. eigenvalues --    2.38487   2.39893   2.42197   2.44356   2.44926
 Alpha virt. eigenvalues --    2.48113   2.49813   2.51251   2.54579   2.56498
 Alpha virt. eigenvalues --    2.58802   2.60518   2.62393   2.64751   2.67034
 Alpha virt. eigenvalues --    2.67603   2.69222   2.69729   2.70296   2.72186
 Alpha virt. eigenvalues --    2.74733   2.76662   2.77685   2.78084   2.78937
 Alpha virt. eigenvalues --    2.80379   2.81316   2.82917   2.84573   2.86678
 Alpha virt. eigenvalues --    2.88038   2.88359   2.90724   2.91362   2.92146
 Alpha virt. eigenvalues --    2.92553   2.93339   2.94157   2.97459   2.98656
 Alpha virt. eigenvalues --    3.00615   3.01991   3.07064   3.16025   3.29335
 Alpha virt. eigenvalues --    3.29476   3.31400   3.35829   3.37897   3.38834
 Alpha virt. eigenvalues --    3.40537   3.43183   3.47360   3.48724   3.49440
 Alpha virt. eigenvalues --    3.50568   3.53764   3.54571   3.56081   3.56881
 Alpha virt. eigenvalues --    3.57761   3.60502   3.62040   3.64165   4.37350
 Alpha virt. eigenvalues --    4.42842   4.50968   4.52251   4.56568   4.61122
 Alpha virt. eigenvalues --    4.62262   4.76881   4.83854   4.88275   4.90952
          Condensed to atoms (all electrons):
              1          2          3          4          5          6
     1  C    6.550490  -0.051975   0.053205   0.132899  -0.080837  -0.199717
     2  C   -0.051975   7.351507   0.430987  -1.664089   0.177951  -0.371887
     3  C    0.053205   0.430987   6.197882  -0.762563   0.153974  -0.114665
     4  C    0.132899  -1.664089  -0.762563   8.792208  -0.482705   0.117715
     5  C   -0.080837   0.177951   0.153974  -0.482705   6.070567  -0.374711
     6  C   -0.199717  -0.371887  -0.114665   0.117715  -0.374711   6.552347
     7  C   -0.422947  -0.224943  -0.122402   0.091425   0.059401   0.199228
     8  O    0.029341   0.202593   0.024659   0.000146  -0.010671  -0.166538
     9  C   -0.021997   0.598867   0.261128  -1.367915   0.070918  -0.282825
    10  C    0.030139  -0.224286  -0.150365   0.515204  -0.028381   0.014874
    11  C    0.006796  -0.167971   0.020910   0.182680  -0.028746   0.097945
    12  H    0.258151  -0.039869  -0.053331   0.030595   0.006547   0.008347
    13  H    0.034262   0.156384  -0.070863   0.151125  -0.009360   0.015514
    14  H    0.007303  -0.068982   0.339799   0.033642  -0.029107   0.014788
    15  H    0.018887   0.014441   0.375770  -0.012786  -0.036267  -0.010645
    16  H   -0.003145   0.118877   0.042338   0.148514   0.032429  -0.013261
    17  H   -0.005620  -0.003633  -0.001164   0.046502   0.278482   0.036634
    18  H   -0.100332  -0.034380  -0.099790   0.054386   0.457244   0.020065
    19  H   -0.003322   0.024487  -0.000301   0.033124   0.036650   0.272874
    20  H   -0.074854  -0.147290  -0.046555   0.103027   0.008786   0.463016
    21  H   -0.090947  -0.003443   0.000555   0.002003   0.002945   0.020126
    22  H   -0.101142  -0.002613  -0.007238   0.003903   0.028729   0.003636
    23  H   -0.134595  -0.004184  -0.007348   0.007077   0.007905   0.005955
    24  H   -0.005398   0.046246   0.015581  -0.042596  -0.001306   0.032482
    25  H    0.007240   0.043355  -0.033699  -0.000581   0.016513  -0.014832
    26  H    0.001222   0.008829  -0.011964   0.010142   0.001571  -0.001949
    27  H   -0.002442  -0.004106  -0.006698  -0.010813   0.005043   0.003138
    28  H    0.000105  -0.004981  -0.007218   0.054492   0.001464   0.001876
    29  H    0.000072   0.018946   0.001300  -0.007798   0.001673  -0.003592
    30  H    0.001610  -0.038020   0.005111   0.018350  -0.002174   0.007331
    31  H   -0.000432   0.002904  -0.005311   0.034264   0.000723   0.002013
              7          8          9         10         11         12
     1  C   -0.422947   0.029341  -0.021997   0.030139   0.006796   0.258151
     2  C   -0.224943   0.202593   0.598867  -0.224286  -0.167971  -0.039869
     3  C   -0.122402   0.024659   0.261128  -0.150365   0.020910  -0.053331
     4  C    0.091425   0.000146  -1.367915   0.515204   0.182680   0.030595
     5  C    0.059401  -0.010671   0.070918  -0.028381  -0.028746   0.006547
     6  C    0.199228  -0.166538  -0.282825   0.014874   0.097945   0.008347
     7  C    5.718377  -0.005344  -0.030078   0.004547   0.006778   0.060005
     8  O   -0.005344   8.282031  -0.029698   0.020173  -0.006977  -0.000650
     9  C   -0.030078  -0.029698   7.653701  -0.400577  -0.384651  -0.003283
    10  C    0.004547   0.020173  -0.400577   5.644661  -0.057710   0.000048
    11  C    0.006778  -0.006977  -0.384651  -0.057710   5.685253  -0.000027
    12  H    0.060005  -0.000650  -0.003283   0.000048  -0.000027   0.571853
    13  H    0.017918  -0.045860  -0.010557   0.006382  -0.000401   0.002899
    14  H    0.011770  -0.000357   0.000024   0.005761  -0.001776   0.003100
    15  H   -0.003770  -0.000439  -0.031404   0.014710  -0.002352  -0.000005
    16  H   -0.000105  -0.017886  -0.000422  -0.033536  -0.005513  -0.000062
    17  H   -0.020823   0.000121  -0.003277   0.001257   0.000708  -0.005233
    18  H    0.023526  -0.000389  -0.009075  -0.003288   0.002068   0.005113
    19  H   -0.027128  -0.001499   0.001790   0.000808  -0.002664  -0.004864
    20  H    0.028481   0.001011  -0.033935   0.007847   0.000464   0.004823
    21  H    0.427073   0.000028   0.000617  -0.000243   0.000104  -0.003735
    22  H    0.435028  -0.000016  -0.000865   0.000207  -0.000165  -0.003654
    23  H    0.476184  -0.000070  -0.001569   0.000160   0.000097   0.004770
    24  H    0.000870   0.223100  -0.045231  -0.004374   0.017610   0.000001
    25  H    0.001331  -0.004915   0.256703  -0.015259   0.015576  -0.000038
    26  H   -0.000006  -0.000164  -0.109203   0.450481  -0.002665   0.000000
    27  H    0.000646   0.000066  -0.046777   0.427965  -0.006471   0.000001
    28  H    0.000064   0.000034  -0.149700   0.459808   0.002094   0.000000
    29  H   -0.000061  -0.003967  -0.108879  -0.001841   0.447759   0.000000
    30  H    0.000083   0.001353  -0.091092  -0.005715   0.469881   0.000001
    31  H    0.000180   0.000732  -0.121069   0.005663   0.434906   0.000000
             13         14         15         16         17         18
     1  C    0.034262   0.007303   0.018887  -0.003145  -0.005620  -0.100332
     2  C    0.156384  -0.068982   0.014441   0.118877  -0.003633  -0.034380
     3  C   -0.070863   0.339799   0.375770   0.042338  -0.001164  -0.099790
     4  C    0.151125   0.033642  -0.012786   0.148514   0.046502   0.054386
     5  C   -0.009360  -0.029107  -0.036267   0.032429   0.278482   0.457244
     6  C    0.015514   0.014788  -0.010645  -0.013261   0.036634   0.020065
     7  C    0.017918   0.011770  -0.003770  -0.000105  -0.020823   0.023526
     8  O   -0.045860  -0.000357  -0.000439  -0.017886   0.000121  -0.000389
     9  C   -0.010557   0.000024  -0.031404  -0.000422  -0.003277  -0.009075
    10  C    0.006382   0.005761   0.014710  -0.033536   0.001257  -0.003288
    11  C   -0.000401  -0.001776  -0.002352  -0.005513   0.000708   0.002068
    12  H    0.002899   0.003100  -0.000005  -0.000062  -0.005233   0.005113
    13  H    0.624251   0.004334  -0.000045  -0.009136  -0.000044   0.000085
    14  H    0.004334   0.552296  -0.028167  -0.005735  -0.004115   0.004633
    15  H   -0.000045  -0.028167   0.549522  -0.002711  -0.002827  -0.003393
    16  H   -0.009136  -0.005735  -0.002711   0.585749  -0.000111  -0.000097
    17  H   -0.000044  -0.004115  -0.002827  -0.000111   0.552620  -0.029491
    18  H    0.000085   0.004633  -0.003393  -0.000097  -0.029491   0.546643
    19  H   -0.005788  -0.000050   0.000010  -0.000125  -0.000125  -0.000064
    20  H    0.005057   0.000090  -0.000018  -0.000132  -0.000053   0.002137
    21  H    0.000001  -0.000001  -0.000001   0.000000   0.002566  -0.000267
    22  H   -0.000001   0.000001   0.000002   0.000000  -0.000009   0.000012
    23  H   -0.000003   0.000000   0.000000   0.000000  -0.000149   0.003329
    24  H   -0.006565   0.000002  -0.000008   0.004919   0.000000   0.000002
    25  H   -0.000155  -0.000140   0.000147   0.005082   0.000022  -0.002014
    26  H   -0.000006  -0.000043   0.000091   0.003120   0.000000  -0.000008
    27  H    0.000000   0.000154  -0.001414   0.000002  -0.000018   0.001376
    28  H    0.000002  -0.000005   0.000138  -0.000089   0.000001  -0.000043
    29  H   -0.000024  -0.000006   0.000017   0.003644   0.000000  -0.000003
    30  H   -0.000003   0.000000  -0.000001  -0.000176   0.000000   0.000005
    31  H    0.000005   0.000002  -0.000005   0.000073   0.000000   0.000003
             19         20         21         22         23         24
     1  C   -0.003322  -0.074854  -0.090947  -0.101142  -0.134595  -0.005398
     2  C    0.024487  -0.147290  -0.003443  -0.002613  -0.004184   0.046246
     3  C   -0.000301  -0.046555   0.000555  -0.007238  -0.007348   0.015581
     4  C    0.033124   0.103027   0.002003   0.003903   0.007077  -0.042596
     5  C    0.036650   0.008786   0.002945   0.028729   0.007905  -0.001306
     6  C    0.272874   0.463016   0.020126   0.003636   0.005955   0.032482
     7  C   -0.027128   0.028481   0.427073   0.435028   0.476184   0.000870
     8  O   -0.001499   0.001011   0.000028  -0.000016  -0.000070   0.223100
     9  C    0.001790  -0.033935   0.000617  -0.000865  -0.001569  -0.045231
    10  C    0.000808   0.007847  -0.000243   0.000207   0.000160  -0.004374
    11  C   -0.002664   0.000464   0.000104  -0.000165   0.000097   0.017610
    12  H   -0.004864   0.004823  -0.003735  -0.003654   0.004770   0.000001
    13  H   -0.005788   0.005057   0.000001  -0.000001  -0.000003  -0.006565
    14  H   -0.000050   0.000090  -0.000001   0.000001   0.000000   0.000002
    15  H    0.000010  -0.000018  -0.000001   0.000002   0.000000  -0.000008
    16  H   -0.000125  -0.000132   0.000000   0.000000   0.000000   0.004919
    17  H   -0.000125  -0.000053   0.002566  -0.000009  -0.000149   0.000000
    18  H   -0.000064   0.002137  -0.000267   0.000012   0.003329   0.000002
    19  H    0.532583  -0.028768  -0.000005   0.002464  -0.000135  -0.000094
    20  H   -0.028768   0.536340   0.000012  -0.000313   0.002923  -0.000113
    21  H   -0.000005   0.000012   0.533778  -0.025478  -0.028015   0.000000
    22  H    0.002464  -0.000313  -0.025478   0.530820  -0.027799   0.000000
    23  H   -0.000135   0.002923  -0.028015  -0.027799   0.532299   0.000000
    24  H   -0.000094  -0.000113   0.000000   0.000000   0.000000   0.403164
    25  H   -0.000038  -0.000340  -0.000001   0.000000  -0.000036   0.000275
    26  H    0.000000  -0.000002   0.000000   0.000000   0.000000   0.000006
    27  H    0.000000   0.000010   0.000000   0.000000   0.000001   0.000000
    28  H    0.000000   0.000006   0.000000   0.000000   0.000000   0.000000
    29  H    0.000001  -0.000009   0.000000   0.000000   0.000000   0.000280
    30  H   -0.000003   0.000263   0.000000   0.000000   0.000000  -0.002267
    31  H    0.000000   0.000002   0.000000   0.000000   0.000000   0.000008
             25         26         27         28         29         30
     1  C    0.007240   0.001222  -0.002442   0.000105   0.000072   0.001610
     2  C    0.043355   0.008829  -0.004106  -0.004981   0.018946  -0.038020
     3  C   -0.033699  -0.011964  -0.006698  -0.007218   0.001300   0.005111
     4  C   -0.000581   0.010142  -0.010813   0.054492  -0.007798   0.018350
     5  C    0.016513   0.001571   0.005043   0.001464   0.001673  -0.002174
     6  C   -0.014832  -0.001949   0.003138   0.001876  -0.003592   0.007331
     7  C    0.001331  -0.000006   0.000646   0.000064  -0.000061   0.000083
     8  O   -0.004915  -0.000164   0.000066   0.000034  -0.003967   0.001353
     9  C    0.256703  -0.109203  -0.046777  -0.149700  -0.108879  -0.091092
    10  C   -0.015259   0.450481   0.427965   0.459808  -0.001841  -0.005715
    11  C    0.015576  -0.002665  -0.006471   0.002094   0.447759   0.469881
    12  H   -0.000038   0.000000   0.000001   0.000000   0.000000   0.000001
    13  H   -0.000155  -0.000006   0.000000   0.000002  -0.000024  -0.000003
    14  H   -0.000140  -0.000043   0.000154  -0.000005  -0.000006   0.000000
    15  H    0.000147   0.000091  -0.001414   0.000138   0.000017  -0.000001
    16  H    0.005082   0.003120   0.000002  -0.000089   0.003644  -0.000176
    17  H    0.000022   0.000000  -0.000018   0.000001   0.000000   0.000000
    18  H   -0.002014  -0.000008   0.001376  -0.000043  -0.000003   0.000005
    19  H   -0.000038   0.000000   0.000000   0.000000   0.000001  -0.000003
    20  H   -0.000340  -0.000002   0.000010   0.000006  -0.000009   0.000263
    21  H   -0.000001   0.000000   0.000000   0.000000   0.000000   0.000000
    22  H    0.000000   0.000000   0.000000   0.000000   0.000000   0.000000
    23  H   -0.000036   0.000000   0.000001   0.000000   0.000000   0.000000
    24  H    0.000275   0.000006   0.000000   0.000000   0.000280  -0.002267
    25  H    0.572961   0.005005  -0.004429  -0.002728   0.004898  -0.003704
    26  H    0.005005   0.531509  -0.028760  -0.027508   0.002797  -0.000026
    27  H   -0.004429  -0.028760   0.537278  -0.026117  -0.000011  -0.000144
    28  H   -0.002728  -0.027508  -0.026117   0.532294  -0.000222   0.000148
    29  H    0.004898   0.002797  -0.000011  -0.000222   0.542533  -0.027712
    30  H   -0.003704  -0.000026  -0.000144   0.000148  -0.027712   0.499553
    31  H   -0.003282  -0.000073   0.000123   0.003301  -0.028190  -0.023996
             31
     1  C   -0.000432
     2  C    0.002904
     3  C   -0.005311
     4  C    0.034264
     5  C    0.000723
     6  C    0.002013
     7  C    0.000180
     8  O    0.000732
     9  C   -0.121069
    10  C    0.005663
    11  C    0.434906
    12  H    0.000000
    13  H    0.000005
    14  H    0.000002
    15  H   -0.000005
    16  H    0.000073
    17  H    0.000000
    18  H    0.000003
    19  H    0.000000
    20  H    0.000002
    21  H    0.000000
    22  H    0.000000
    23  H    0.000000
    24  H    0.000008
    25  H   -0.003282
    26  H   -0.000073
    27  H    0.000123
    28  H    0.003301
    29  H   -0.028190
    30  H   -0.023996
    31  H    0.539302
 Mulliken atomic charges:
              1
     1  C    0.167980
     2  C   -0.139720
     3  C   -0.421722
     4  C   -0.211579
     5  C   -0.335248
     6  C   -0.335283
     7  C   -0.705306
     8  O   -0.489945
     9  C    0.440335
    10  C   -0.685118
    11  C   -0.723540
    12  H    0.158495
    13  H    0.140593
    14  H    0.160785
    15  H    0.162524
    16  H    0.147497
    17  H    0.157779
    18  H    0.162010
    19  H    0.170184
    20  H    0.168087
    21  H    0.162328
    22  H    0.164494
    23  H    0.163205
    24  H    0.363406
    25  H    0.157081
    26  H    0.167606
    27  H    0.162395
    28  H    0.162785
    29  H    0.158395
    30  H    0.191344
    31  H    0.158155
 Sum of Mulliken atomic charges =   0.00000
 Mulliken charges with hydrogens summed into heavy atoms:
              1
     1  C    0.326475
     2  C    0.000872
     3  C   -0.098413
     4  C   -0.064082
     5  C   -0.015460
     6  C    0.002988
     7  C   -0.215279
     8  O   -0.126540
     9  C    0.597416
    10  C   -0.192332
    11  C   -0.215646
 Sum of Mulliken charges with hydrogens summed into heavy atoms =   0.00000
 Electronic spatial extent (au):  <R**2>=           2052.1069
 Charge=              0.0000 electrons
 Dipole moment (field-independent basis, Debye):
    X=              0.1286    Y=             -1.2034    Z=              1.3467  Tot=              1.8106
 Quadrupole moment (field-independent basis, Debye-Ang):
   XX=            -70.4702   YY=            -76.6291   ZZ=            -70.3080
   XY=              1.2442   XZ=              1.4562   YZ=              3.1252
 Traceless Quadrupole moment (field-independent basis, Debye-Ang):
   XX=              1.9989   YY=             -4.1600   ZZ=              2.1611
   XY=              1.2442   XZ=              1.4562   YZ=              3.1252
 Octapole moment (field-independent basis, Debye-Ang**2):
  XXX=              1.7763  YYY=             -2.9221  ZZZ=              2.7549  XYY=              2.6095
  XXY=              9.5005  XXZ=              6.0309  XZZ=              4.0729  YZZ=              5.7880
  YYZ=              8.6330  XYZ=              6.0309
 Hexadecapole moment (field-independent basis, Debye-Ang**3):
 XXXX=          -1688.2572 YYYY=           -843.4933 ZZZZ=           -363.8461 XXXY=             13.8144
 XXXZ=             -0.3505 YYYX=             25.0920 YYYZ=             17.9018 ZZZX=             -2.1705
 ZZZY=             10.6686 XXYY=           -393.6687 XXZZ=           -335.8308 YYZZ=           -188.2026
 XXYZ=              7.7886 YYXZ=             12.5220 ZZXY=              4.3532
 N-N= 6.961995906471D+02 E-N=-2.477703832633D+03  KE= 4.636936471850D+02
 1\1\GINC-COMPUTE-10-1\SP\RmPW1PW91\6-31+G(d,p)\C10H20O1\ASAROTTI.IQUIR
 \19-Sep-2024\0\\# mPW1PW91/6-31+G** nmr scrf=(pcm,solvent=benzene)\\co
 mment\\0,1\C,0,-2.16474,-0.057824,0.056134\C,0,-0.056962,1.258825,0.61
 543\C,0,-0.189994,-1.121277,1.27022\C,0,0.790818,-0.034969,0.761808\C,
 0,-1.367384,-1.351295,0.308989\C,0,-1.222022,1.086371,-0.360784\C,0,-3
 .284936,-0.266301,-0.969102\O,0,0.665436,2.419751,0.198745\C,0,1.60976
 3,-0.45465,-0.497592\C,0,2.154987,-1.890609,-0.387066\C,0,2.785272,0.5
 00901,-0.777668\H,0,-2.630639,0.230611,1.0123\H,0,-0.488617,1.455414,1
 .613352\H,0,-0.589061,-0.797802,2.242626\H,0,0.33805,-2.060341,1.46207
 8\H,0,1.524816,0.142145,1.567104\H,0,-2.034819,-2.122555,0.716155\H,0,
 -0.997353,-1.741266,-0.65052\H,0,-1.772091,2.034065,-0.413449\H,0,-0.8
 27736,0.901124,-1.369216\H,0,-3.976414,-1.054801,-0.648298\H,0,-3.8667
 98,0.651541,-1.115647\H,0,-2.874486,-0.559333,-1.944078\H,0,1.396484,2
 .54834,0.823594\H,0,0.947476,-0.423409,-1.373213\H,0,2.755344,-2.01780
 9,0.523872\H,0,1.363494,-2.646376,-0.374484\H,0,2.805248,-2.113582,-1.
 241023\H,0,3.474994,0.528132,0.077996\H,0,2.439975,1.516575,-0.975367\
 H,0,3.359837,0.156287,-1.645951\\Version=EM64L-G09RevC.01\State=1-A\HF
 =-468.2793364\RMSD=7.978e-09\Dipole=0.0506128,-0.4734375,0.5298261\Qua
 drupole=1.4861226,-3.0928452,1.6067226,0.9250563,1.0826532,2.3235115\P
 G=C01 [X(C10H20O1)]\\@


 CONFIDENCE IS WHAT YOU FEEL BEFORE YOU FULLY
 COMPREHEND THE SITUATION.
 Job cpu time:  0 days  0 hours 40 minutes 17.4 seconds.
 File lengths (MBytes):  RWF=    120 Int=      0 D2E=      0 Chk=      7 Scr=      1
 Normal termination of Gaussian 09 at Thu Sep 19 10:25:46 2024.
