 Entering Gaussian System, Link 0=g09
 Input=/home/asarotti.iquir/SCF2/04_Mentol11_OptB_NMR_benzene.gjc
 Output=/home/asarotti.iquir/SCF2/04_Mentol11_OptB_NMR_benzene.log
 Initial command:
 /opt/ohpc/pub/apps/software/Gaussian/09/AMD64.SSE4a-enabled/g09/l1.exe /local/asarotti.iquir/Gau-1842437.inp -scrdir=/local/asarotti.iquir/
 Entering Link 1 = /opt/ohpc/pub/apps/software/Gaussian/09/AMD64.SSE4a-enabled/g09/l1.exe PID=   1842438.
  
 Copyright (c) 1988,1990,1992,1993,1995,1998,2003,2009,2011,
            Gaussian, Inc.  All Rights Reserved.
  
 This is part of the Gaussian(R) 09 program.  It is based on
 the Gaussian(R) 03 system (copyright 2003, Gaussian, Inc.),
 the Gaussian(R) 98 system (copyright 1998, Gaussian, Inc.),
 the Gaussian(R) 94 system (copyright 1995, Gaussian, Inc.),
 the Gaussian 92(TM) system (copyright 1992, Gaussian, Inc.),
 the Gaussian 90(TM) system (copyright 1990, Gaussian, Inc.),
 the Gaussian 88(TM) system (copyright 1988, Gaussian, Inc.),
 the Gaussian 86(TM) system (copyright 1986, Carnegie Mellon
 University), and the Gaussian 82(TM) system (copyright 1983,
 Carnegie Mellon University). Gaussian is a federally registered
 trademark of Gaussian, Inc.
  
 This software contains proprietary and confidential information,
 including trade secrets, belonging to Gaussian, Inc.
  
 This software is provided under written license and may be
 used, copied, transmitted, or stored only in accord with that
 written license.
  
 The following legend is applicable only to US Government
 contracts under FAR:
  
                    RESTRICTED RIGHTS LEGEND
  
 Use, reproduction and disclosure by the US Government is
 subject to restrictions as set forth in subparagraphs (a)
 and (c) of the Commercial Computer Software - Restricted
 Rights clause in FAR 52.227-19.
  
 Gaussian, Inc.
 340 Quinnipiac St., Bldg. 40, Wallingford CT 06492
  
  
 ---------------------------------------------------------------
 Warning -- This program may not be used in any manner that
 competes with the business of Gaussian, Inc. or will provide
 assistance to any competitor of Gaussian, Inc.  The licensee
 of this program is prohibited from giving any competitor of
 Gaussian, Inc. access to this program.  By using this program,
 the user acknowledges that Gaussian, Inc. is engaged in the
 business of creating and licensing software in the field of
 computational chemistry and represents and warrants to the
 licensee that it is not a competitor of Gaussian, Inc. and that
 it will not use this program in any manner prohibited above.
 ---------------------------------------------------------------
  

 Cite this work as:
 Gaussian 09, Revision C.01,
 M. J. Frisch, G. W. Trucks, H. B. Schlegel, G. E. Scuseria, 
 M. A. Robb, J. R. Cheeseman, G. Scalmani, V. Barone, B. Mennucci, 
 G. A. Petersson, H. Nakatsuji, M. Caricato, X. Li, H. P. Hratchian, 
 A. F. Izmaylov, J. Bloino, G. Zheng, J. L. Sonnenberg, M. Hada, 
 M. Ehara, K. Toyota, R. Fukuda, J. Hasegawa, M. Ishida, T. Nakajima, 
 Y. Honda, O. Kitao, H. Nakai, T. Vreven, J. A. Montgomery, Jr., 
 J. E. Peralta, F. Ogliaro, M. Bearpark, J. J. Heyd, E. Brothers, 
 K. N. Kudin, V. N. Staroverov, T. Keith, R. Kobayashi, J. Normand, 
 K. Raghavachari, A. Rendell, J. C. Burant, S. S. Iyengar, J. Tomasi, 
 M. Cossi, N. Rega, J. M. Millam, M. Klene, J. E. Knox, J. B. Cross, 
 V. Bakken, C. Adamo, J. Jaramillo, R. Gomperts, R. E. Stratmann, 
 O. Yazyev, A. J. Austin, R. Cammi, C. Pomelli, J. W. Ochterski, 
 R. L. Martin, K. Morokuma, V. G. Zakrzewski, G. A. Voth, 
 P. Salvador, J. J. Dannenberg, S. Dapprich, A. D. Daniels, 
 O. Farkas, J. B. Foresman, J. V. Ortiz, J. Cioslowski, 
 and D. J. Fox, Gaussian, Inc., Wallingford CT, 2010.
 
 ******************************************
 Gaussian 09:  AM64L-G09RevC.01 23-Sep-2011
                19-Sep-2024 
 ******************************************
 %nprocshared=4
 Will use up to    4 processors via shared memory.
 %mem=100mw
 --------------------------------------------------
 # mPW1PW91/6-31+G** nmr scrf=(pcm,solvent=benzene)
 --------------------------------------------------
 1/38=1/1;
 2/12=2,17=6,18=5,40=1/2;
 3/5=1,6=6,7=111,11=2,16=1,25=1,30=1,70=2201,72=12,74=-7/1,2,8,3;
 4//1;
 5/5=2,38=5,53=12/2;
 8/6=1,10=90,11=11/1;
 10/13=100,45=16/2;
 6/7=2,8=2,9=2,10=2,28=1/1;
 99/9=1/99;
 -------
 comment
 -------
 Charge =  0 Multiplicity = 1
 Symbolic Z-Matrix:
 6                     2.12041  -0.16819  -0.24339 
 6                     0.11987   1.37421  -0.44514 
 6                    -0.06825  -1.00188  -1.2855 
 6                    -0.86484   0.20727  -0.73175 
 6                     1.19195  -1.37216  -0.48284 
 6                     1.3349    0.98958   0.39713 
 6                     3.34604  -0.55428   0.59202 
 8                    -0.50308   2.48875   0.19714 
 6                    -1.89168  -0.09817   0.40206 
 6                    -1.4118   -0.97692   1.56966 
 6                    -3.17525  -0.70523  -0.19389 
 1                     2.47766   0.17884  -1.22696 
 1                     0.50617   1.69666  -1.42925 
 1                     0.24336  -0.76035  -2.3121 
 1                    -0.72695  -1.87518  -1.37309 
 1                    -1.48886   0.56668  -1.56666 
 1                     1.74042  -2.15724  -1.02128 
 1                     0.91696  -1.80335   0.48708 
 1                     1.97439   1.87512   0.50196 
 1                     1.01555   0.71609   1.41075 
 1                     3.91874  -1.35548   0.10946 
 1                     4.01744   0.30103   0.7335 
 1                     3.0476   -0.91124   1.5862 
 1                    -1.22819   2.7892   -0.37371 
 1                    -2.15727   0.87813   0.82712 
 1                    -1.18373  -1.99901   1.24416 
 1                    -0.52537  -0.57279   2.06579 
 1                    -2.20343  -1.04942   2.3255 
 1                    -2.982    -1.6774   -0.66579 
 1                    -3.61595  -0.04984  -0.95505 
 1                    -3.93002  -0.8659    0.58515 
 
                          Input orientation:                          
 ---------------------------------------------------------------------
 Center     Atomic      Atomic             Coordinates (Angstroms)
 Number     Number       Type             X           Y           Z
 ---------------------------------------------------------------------
      1          6           0        2.120411   -0.168185   -0.243393
      2          6           0        0.119870    1.374211   -0.445140
      3          6           0       -0.068253   -1.001881   -1.285501
      4          6           0       -0.864836    0.207268   -0.731745
      5          6           0        1.191945   -1.372160   -0.482837
      6          6           0        1.334899    0.989584    0.397134
      7          6           0        3.346039   -0.554279    0.592019
      8          8           0       -0.503080    2.488753    0.197139
      9          6           0       -1.891676   -0.098174    0.402055
     10          6           0       -1.411801   -0.976918    1.569655
     11          6           0       -3.175250   -0.705227   -0.193893
     12          1           0        2.477658    0.178835   -1.226961
     13          1           0        0.506172    1.696662   -1.429245
     14          1           0        0.243364   -0.760351   -2.312102
     15          1           0       -0.726946   -1.875177   -1.373091
     16          1           0       -1.488860    0.566680   -1.566664
     17          1           0        1.740422   -2.157242   -1.021280
     18          1           0        0.916964   -1.803354    0.487076
     19          1           0        1.974389    1.875119    0.501963
     20          1           0        1.015550    0.716090    1.410747
     21          1           0        3.918737   -1.355481    0.109464
     22          1           0        4.017439    0.301027    0.733499
     23          1           0        3.047602   -0.911239    1.586195
     24          1           0       -1.228185    2.789195   -0.373712
     25          1           0       -2.157269    0.878129    0.827117
     26          1           0       -1.183727   -1.999009    1.244159
     27          1           0       -0.525369   -0.572790    2.065789
     28          1           0       -2.203425   -1.049421    2.325499
     29          1           0       -2.981998   -1.677397   -0.665789
     30          1           0       -3.615948   -0.049837   -0.955051
     31          1           0       -3.930023   -0.865901    0.585153
 ---------------------------------------------------------------------
                    Distance matrix (angstroms):
                    1          2          3          4          5
     1  C    0.000000
     2  C    2.534137   0.000000
     3  C    2.563452   2.527333   0.000000
     4  C    3.048139   1.553559   1.550236   0.000000
     5  C    1.539136   2.948444   1.539310   2.605167   0.000000
     6  C    1.538744   1.527632   2.960748   2.593303   2.524405
     7  C    1.532692   3.899095   3.922094   4.479260   2.542512
     8  O    3.759800   1.429263   3.817306   2.489752   4.271080
     9  C    4.064277   2.632864   2.643748   1.559871   3.451781
    10  C    4.051878   3.454450   3.155576   2.645356   3.338927
    11  C    5.323053   3.904485   3.306515   2.541642   4.427266
    12  H    1.102476   2.756689   2.806988   3.379100   2.147641
    13  H    2.736726   1.105290   2.762745   2.141136   3.283845
    14  H    2.855437   2.838512   1.099705   2.159148   2.149495
    15  H    3.506776   3.483779   1.097358   2.183327   2.174332
    16  H    3.913810   2.120833   2.134844   1.102575   3.481450
    17  H    2.169297   3.928013   2.162401   3.530171   1.098682
    18  H    2.157695   3.406069   2.180606   2.950074   1.096483
    19  H    2.179901   2.141764   3.955318   3.516385   3.482366
    20  H    2.176888   2.163257   3.375768   2.895690   2.824458
    21  H    2.183611   4.710647   4.238756   5.102194   2.790429
    22  H    2.184764   4.210933   4.739917   5.098268   3.501777
    23  H    2.181560   4.233346   4.238326   4.683063   2.817233
    24  H    4.469471   1.955642   4.068053   2.631835   4.815165
    25  H    4.532032   2.655202   3.515904   2.133187   4.242289
    26  H    4.059810   3.991455   2.939001   2.978850   3.003210
    27  H    3.534993   3.242208   3.409431   2.924025   3.175477
    28  H    5.106010   4.352945   4.195300   3.566206   4.418082
    29  H    5.337670   4.356901   3.054550   2.835258   4.189086
    30  H    5.781546   4.030417   3.688052   2.772109   5.008728
    31  H    6.146629   4.741438   4.293146   3.504466   5.256563
                    6          7          8          9         10
     6  C    0.000000
     7  C    2.542868   0.000000
     8  O    2.380267   4.922570   0.000000
     9  C    3.405000   5.260967   2.943192   0.000000
    10  C    3.575793   4.875596   3.836724   1.538103   0.000000
    11  C    4.854188   6.570210   4.182691   1.539880   2.508719
    12  H    2.144970   2.144815   4.030953   4.671350   4.927953
    13  H    2.126595   4.149348   2.071503   3.510665   4.451972
    14  H    3.404949   4.254759   4.172547   3.516180   4.225460
    15  H    3.948640   4.711224   4.643234   2.768660   3.152087
    16  H    3.465395   5.412274   2.788750   2.116636   3.496445
    17  H    3.475466   2.783923   5.301237   4.411097   4.247660
    18  H    2.825467   2.733424   4.530206   3.286841   2.697799
    19  H    1.097319   2.791327   2.570470   4.341696   4.554159
    20  H    1.097358   2.777649   2.630858   3.183151   2.963707
    21  H    3.501186   1.096707   5.859888   5.952086   5.539865
    22  H    2.789852   1.096514   5.050636   5.931851   5.639942
    23  H    2.821408   1.097666   5.108499   5.143902   4.459917
    24  H    3.225245   5.747606   0.970522   3.062505   4.241933
    25  H    3.520305   5.691526   2.393183   1.097445   2.132671
    26  H    3.999077   4.799095   4.658276   2.196248   1.096647
    27  H    2.947205   4.142480   3.586836   2.204556   1.093266
    28  H    4.516179   5.834952   4.465396   2.168339   1.096916
    29  H    5.184418   6.548857   4.924072   2.196142   2.820177
    30  H    5.236381   7.149626   4.178747   2.194809   3.477339
    31  H    5.585479   7.282735   4.811257   2.185815   2.706106
                   11         12         13         14         15
    11  C    0.000000
    12  H    5.814135   0.000000
    13  H    4.565965   2.496292   0.000000
    14  H    4.022036   2.655498   2.624008   0.000000
    15  H    2.958629   3.809174   3.779123   1.751023   0.000000
    16  H    2.519158   3.999886   2.296932   2.305925   2.565278
    17  H    5.191989   2.458267   4.067233   2.420477   2.508234
    18  H    4.291365   3.050043   4.011377   3.062187   2.483510
    19  H    5.801826   2.473830   2.432503   4.226241   4.987761
    20  H    4.707209   3.063316   3.047383   4.078695   4.183385
    21  H    7.130183   2.493364   4.829990   4.441456   4.904123
    22  H    7.321706   2.495849   4.353648   4.964459   5.628745
    23  H    6.475727   3.070333   4.727885   4.804502   4.892214
    24  H    4.004295   4.612514   2.305596   4.303730   4.796495
    25  H    2.141439   5.117694   3.585399   4.278125   3.803608
    26  H    2.776334   4.924955   4.864240   4.027140   2.659696
    27  H    3.485050   4.519437   4.292989   4.448827   3.682763
    28  H    2.722177   6.003426   5.383400   5.251446   4.067116
    29  H    1.097792   5.793820   4.912685   3.735543   2.371635
    30  H    1.096865   6.103954   4.501888   4.152193   3.442812
    31  H    1.096545   6.740446   5.504939   5.081573   3.887552
                   16         17         18         19         20
    16  H    0.000000
    17  H    4.259748   0.000000
    18  H    3.952581   1.754553   0.000000
    19  H    4.240911   4.316821   3.827471   0.000000
    20  H    3.893503   3.833566   2.685235   1.757444   0.000000
    21  H    5.978814   2.581949   3.058402   3.790953   3.796477
    22  H    5.973328   3.782478   3.755275   2.589484   3.105202
    23  H    5.718763   3.171777   2.558036   3.176655   2.609256
    24  H    2.535874   5.805102   5.141413   3.443664   3.537853
    25  H    2.504787   5.274661   4.093518   4.262665   3.230118
    26  H    3.817930   3.702418   2.241508   5.053060   3.498047
    27  H    3.927012   4.144188   2.467174   3.832310   2.112989
    28  H    4.274496   5.289813   3.699330   5.415935   3.783596
    29  H    2.841992   4.760029   4.067784   6.208847   5.101095
    30  H    2.297535   5.756409   5.069699   6.089352   5.256845
    31  H    3.555542   6.033418   4.937785   6.510161   5.257660
                   21         22         23         24         25
    21  H    0.000000
    22  H    1.772902   0.000000
    23  H    1.771147   1.771232   0.000000
    24  H    6.625904   5.910454   5.984714   0.000000
    25  H    6.513209   6.202325   5.555963   2.440770   0.000000
    26  H    5.266574   5.709910   4.382280   5.054343   3.065882
    27  H    4.918322   4.814110   3.620867   4.212844   2.510492
    28  H    6.518079   6.561808   5.304616   4.792891   2.441870
    29  H    6.951603   7.407043   6.481860   4.807454   3.072403
    30  H    7.720711   7.825785   7.183512   3.754926   2.482939
    31  H    7.878388   8.034045   7.049212   4.645329   2.498568
                   26         27         28         29         30
    26  H    0.000000
    27  H    1.772741   0.000000
    28  H    1.763745   1.763660   0.000000
    29  H    2.642937   3.836235   3.154098   0.000000
    30  H    3.814642   4.353232   3.708962   1.770457   0.000000
    31  H    3.043085   3.724227   2.458378   1.766956   1.771110
                   31
    31  H    0.000000
 Stoichiometry    C10H20O
 Framework group  C1[X(C10H20O)]
 Deg. of freedom    87
 Full point group                 C1      NOp   1
 Largest Abelian subgroup         C1      NOp   1
 Largest concise Abelian subgroup C1      NOp   1
                         Standard orientation:                         
 ---------------------------------------------------------------------
 Center     Atomic      Atomic             Coordinates (Angstroms)
 Number     Number       Type             X           Y           Z
 ---------------------------------------------------------------------
      1          6           0        2.120411   -0.168185   -0.243393
      2          6           0        0.119870    1.374211   -0.445140
      3          6           0       -0.068253   -1.001881   -1.285501
      4          6           0       -0.864836    0.207268   -0.731745
      5          6           0        1.191945   -1.372160   -0.482837
      6          6           0        1.334899    0.989584    0.397134
      7          6           0        3.346039   -0.554279    0.592019
      8          8           0       -0.503080    2.488753    0.197139
      9          6           0       -1.891676   -0.098174    0.402055
     10          6           0       -1.411801   -0.976918    1.569655
     11          6           0       -3.175250   -0.705227   -0.193893
     12          1           0        2.477658    0.178835   -1.226961
     13          1           0        0.506172    1.696662   -1.429245
     14          1           0        0.243364   -0.760351   -2.312102
     15          1           0       -0.726946   -1.875177   -1.373091
     16          1           0       -1.488860    0.566680   -1.566664
     17          1           0        1.740422   -2.157242   -1.021280
     18          1           0        0.916964   -1.803354    0.487076
     19          1           0        1.974389    1.875119    0.501963
     20          1           0        1.015550    0.716090    1.410747
     21          1           0        3.918737   -1.355481    0.109464
     22          1           0        4.017439    0.301027    0.733499
     23          1           0        3.047602   -0.911239    1.586195
     24          1           0       -1.228185    2.789195   -0.373712
     25          1           0       -2.157269    0.878129    0.827117
     26          1           0       -1.183727   -1.999009    1.244159
     27          1           0       -0.525369   -0.572790    2.065789
     28          1           0       -2.203425   -1.049421    2.325499
     29          1           0       -2.981998   -1.677397   -0.665789
     30          1           0       -3.615948   -0.049837   -0.955051
     31          1           0       -3.930023   -0.865901    0.585153
 ---------------------------------------------------------------------
 Rotational constants (GHZ):      1.5110505      0.7870005      0.6584697
 Standard basis: 6-31+G(d,p) (6D, 7F)
 There are   309 symmetry adapted basis functions of A   symmetry.
 Integral buffers will be    131072 words long.
 Raffenetti 2 integral format.
 Two-electron integral symmetry is turned on.
   309 basis functions,   492 primitive gaussians,   309 cartesian basis functions
    44 alpha electrons       44 beta electrons
       nuclear repulsion energy       695.8051184377 Hartrees.
 NAtoms=   31 NActive=   31 NUniq=   31 SFac= 1.00D+00 NAtFMM=   60 NAOKFM=F Big=F
 ------------------------------------------------------------------------------
 Polarizable Continuum Model (PCM)
 =================================
 Model                : PCM.
 Atomic radii         : UFF (Universal Force Field).
 Polarization charges : Total charges.
 Charge compensation  : None.
 Solution method      : Matrix inversion.
 Cavity type          : Scaled VdW (van der Waals Surface) (Alpha=1.100).
 Cavity algorithm     : GePol (No added spheres)
                        Default sphere list used, NSphG=   31.
                        Lebedev-Laikov grids with approx.  5.0 points / Ang**2.
                        Smoothing algorithm: Karplus/York (Gamma=1.0000).
                        Polarization charges: spherical gaussians, with
                                              point-specific exponents (IZeta= 3).
                        Self-potential: point-specific (ISelfS= 7).
                        Self-field    : sphere-specific E.n sum rule (ISelfD= 2).
 Solvent              : Benzene, Eps=   2.270600 Eps(inf)=   2.253301
 ------------------------------------------------------------------------------
 One-electron integrals computed using PRISM.
 NBasis=   309 RedAO= T  NBF=   309
 NBsUse=   309 1.00D-06 NBFU=   309
 Harris functional with IExCor=  908 diagonalized for initial guess.
 ExpMin= 4.38D-02 ExpMax= 5.48D+03 ExpMxC= 8.25D+02 IAcc=2 IRadAn=         4 AccDes= 0.00D+00
 HarFok:  IExCor=  908 AccDes= 0.00D+00 IRadAn=         4 IDoV= 1
 ScaDFX=  1.000000  1.000000  1.000000  1.000000
 FoFCou: FMM=F IPFlag=           0 FMFlag=      100000 FMFlg1=           0
         NFxFlg=           0 DoJE=T BraDBF=F KetDBF=T FulRan=T
         Omega=  0.000000  0.000000  1.000000  0.000000  0.000000 ICntrl=     500 IOpCl=  0
         NMat0=    1 NMatS0=    1 NMatT0=    0 NMatD0=    1 NMtDS0=    0 NMtDT0=    0
         I1Cent=           4 NGrid=           0.
 Petite list used in FoFCou.
 Initial guess orbital symmetries:
       Occupied  (A) (A) (A) (A) (A) (A) (A) (A) (A) (A) (A) (A)
                 (A) (A) (A) (A) (A) (A) (A) (A) (A) (A) (A) (A)
                 (A) (A) (A) (A) (A) (A) (A) (A) (A) (A) (A) (A)
                 (A) (A) (A) (A) (A) (A) (A) (A)
       Virtual   (A) (A) (A) (A) (A) (A) (A) (A) (A) (A) (A) (A)
                 (A) (A) (A) (A) (A) (A) (A) (A) (A) (A) (A) (A)
                 (A) (A) (A) (A) (A) (A) (A) (A) (A) (A) (A) (A)
                 (A) (A) (A) (A) (A) (A) (A) (A) (A) (A) (A) (A)
                 (A) (A) (A) (A) (A) (A) (A) (A) (A) (A) (A) (A)
                 (A) (A) (A) (A) (A) (A) (A) (A) (A) (A) (A) (A)
                 (A) (A) (A) (A) (A) (A) (A) (A) (A) (A) (A) (A)
                 (A) (A) (A) (A) (A) (A) (A) (A) (A) (A) (A) (A)
                 (A) (A) (A) (A) (A) (A) (A) (A) (A) (A) (A) (A)
                 (A) (A) (A) (A) (A) (A) (A) (A) (A) (A) (A) (A)
                 (A) (A) (A) (A) (A) (A) (A) (A) (A) (A) (A) (A)
                 (A) (A) (A) (A) (A) (A) (A) (A) (A) (A) (A) (A)
                 (A) (A) (A) (A) (A) (A) (A) (A) (A) (A) (A) (A)
                 (A) (A) (A) (A) (A) (A) (A) (A) (A) (A) (A) (A)
                 (A) (A) (A) (A) (A) (A) (A) (A) (A) (A) (A) (A)
                 (A) (A) (A) (A) (A) (A) (A) (A) (A) (A) (A) (A)
                 (A) (A) (A) (A) (A) (A) (A) (A) (A) (A) (A) (A)
                 (A) (A) (A) (A) (A) (A) (A) (A) (A) (A) (A) (A)
                 (A) (A) (A) (A) (A) (A) (A) (A) (A) (A) (A) (A)
                 (A) (A) (A) (A) (A) (A) (A) (A) (A) (A) (A) (A)
                 (A) (A) (A) (A) (A) (A) (A) (A) (A) (A) (A) (A)
                 (A) (A) (A) (A) (A) (A) (A) (A) (A) (A) (A) (A)
                 (A)
 The electronic state of the initial guess is 1-A.
 Requested convergence on RMS density matrix=1.00D-08 within 128 cycles.
 Requested convergence on MAX density matrix=1.00D-06.
 Requested convergence on             energy=1.00D-06.
 No special actions if energy rises.
 Error on total polarization charges =  0.00931
 SCF Done:  E(RmPW1PW91) =  -468.276959165     A.U. after   12 cycles
             Convg  =    0.8268D-08             -V/T =  2.0099
 Range of M.O.s used for correlation:     1   309
 NBasis=   309 NAE=    44 NBE=    44 NFC=     0 NFV=     0
 NROrb=    309 NOA=    44 NOB=    44 NVA=   265 NVB=   265

 **** Warning!!: The largest alpha MO coefficient is  0.70779369D+02

 NEqPCM:  Using equilibrium solvation (IEInf=0, Eps=   2.2706, EpsInf=   2.2533)
          Differentiating once with respect to magnetic field using GIAOs.
          Electric field/nuclear overlap derivatives assumed to be zero.
 FoFCou: FMM=F IPFlag=           0 FMFlag=    10101102 FMFlg1=           0
         NFxFlg=    40000000 DoJE=F BraDBF=F KetDBF=T FulRan=T
         Omega=  0.000000  0.000000  1.000000  0.000000  0.000000 ICntrl=    6100 IOpCl=  0
         NMat0=    1 NMatS0=    1 NMatT0=    0 NMatD0=    1 NMtDS0=    0 NMtDT0=    0
         I1Cent=           7 NGrid=        1920.
 Symmetry not used in FoFCou.
          There are     3 degrees of freedom in the 1st order CPHF.  IDoFFX=0.
      3 vectors produced by pass  0 Test12= 3.89D-13 3.33D-08 XBig12= 3.27D+01 1.23D+00.
 AX will form     3 AO Fock derivatives at one time.
      3 vectors produced by pass  1 Test12= 3.89D-13 3.33D-08 XBig12= 7.14D-02 4.05D-02.
      3 vectors produced by pass  2 Test12= 3.89D-13 3.33D-08 XBig12= 1.08D-04 1.79D-03.
      3 vectors produced by pass  3 Test12= 3.89D-13 3.33D-08 XBig12= 4.08D-07 1.92D-04.
      3 vectors produced by pass  4 Test12= 3.89D-13 3.33D-08 XBig12= 1.22D-09 8.14D-06.
      3 vectors produced by pass  5 Test12= 3.89D-13 3.33D-08 XBig12= 3.29D-12 3.59D-07.
 Inverted reduced A of dimension    18 with in-core refinement.
 Calculating GIAO nuclear magnetic shielding tensors.
 SCF GIAO Magnetic shielding tensor (ppm):
      1  C    Isotropic =   161.4710   Anisotropy =     7.5296
   XX=   163.7381   YX=     1.4425   ZX=     2.3870
   XY=     2.1932   YY=   161.1886   ZY=     1.1265
   XZ=     5.1863   YZ=    -0.7004   ZZ=   159.4863
   Eigenvalues:   157.1256   160.7967   166.4908
      2  C    Isotropic =   121.4556   Anisotropy =    45.2674
   XX=   122.9629   YX=   -17.1199   ZX=    -9.6540
   XY=   -11.3868   YY=   130.9666   ZY=    15.5379
   XZ=   -11.2444   YZ=    19.1410   ZZ=   110.4373
   Eigenvalues:   100.2819   112.4510   151.6339
      3  C    Isotropic =   169.9091   Anisotropy =    19.5715
   XX=   174.6641   YX=    -8.0486   ZX=     6.8348
   XY=   -10.4546   YY=   166.4098   ZY=     0.5130
   XZ=     5.9836   YZ=    -1.4714   ZZ=   168.6534
   Eigenvalues:   159.2100   167.5606   182.9568
      4  C    Isotropic =   149.1755   Anisotropy =    18.5217
   XX=   154.0091   YX=    13.1526   ZX=    -5.7115
   XY=     2.1517   YY=   145.1590   ZY=    -2.3319
   XZ=    -3.0454   YZ=    -7.8268   ZZ=   148.3583
   Eigenvalues:   139.9592   146.0440   161.5233
      5  C    Isotropic =   163.2645   Anisotropy =    17.9902
   XX=   169.6543   YX=     4.2749   ZX=     6.3004
   XY=     9.9901   YY=   162.2008   ZY=     1.0867
   XZ=     2.3701   YZ=     2.7855   ZZ=   157.9383
   Eigenvalues:   156.4325   158.1030   175.2579
      6  C    Isotropic =   157.3461   Anisotropy =    28.9320
   XX=   162.0910   YX=   -17.6019   ZX=     3.1125
   XY=   -14.1032   YY=   159.3238   ZY=     6.3435
   XZ=     2.1583   YZ=     1.1667   ZZ=   150.6236
   Eigenvalues:   142.3042   153.1000   176.6342
      7  C    Isotropic =   173.2546   Anisotropy =    37.6708
   XX=   187.8869   YX=    -5.6233   ZX=    13.7978
   XY=    -8.4481   YY=   164.8529   ZY=    -2.3986
   XZ=    18.5119   YZ=    -3.1604   ZZ=   167.0241
   Eigenvalues:   158.0652   163.3302   198.3685
      8  O    Isotropic =   279.7430   Anisotropy =    90.9738
   XX=   303.5011   YX=   -36.8765   ZX=    29.8258
   XY=   -27.6777   YY=   276.5013   ZY=    -7.0065
   XZ=    39.6740   YZ=   -15.2921   ZZ=   259.2266
   Eigenvalues:   238.7943   260.0425   340.3922
      9  C    Isotropic =   168.1971   Anisotropy =    10.0101
   XX=   174.6959   YX=    -0.9639   ZX=    -0.4639
   XY=     0.3479   YY=   156.2712   ZY=    -5.7318
   XZ=     0.2867   YZ=    -3.8957   ZZ=   173.6242
   Eigenvalues:   155.0201   174.7007   174.8705
     10  C    Isotropic =   173.0495   Anisotropy =    22.2506
   XX=   173.7812   YX=     0.6964   ZX=     4.1388
   XY=    -3.6244   YY=   166.8008   ZY=   -12.4219
   XZ=     9.1166   YZ=    -8.9887   ZZ=   178.5664
   Eigenvalues:   160.0962   171.1690   187.8832
     11  C    Isotropic =   171.3050   Anisotropy =    40.3617
   XX=   187.3137   YX=     9.3529   ZX=    15.0461
   XY=    17.3126   YY=   155.3619   ZY=    -5.8768
   XZ=    15.4056   YZ=    -6.7683   ZZ=   171.2395
   Eigenvalues:   145.1321   170.5702   198.2128
     12  H    Isotropic =    30.0622   Anisotropy =     7.5400
   XX=    31.2431   YX=     0.8569   ZX=    -2.8891
   XY=     0.3695   YY=    26.9975   ZY=    -1.9850
   XZ=    -3.1706   YZ=    -1.9649   ZZ=    31.9461
   Eigenvalues:    26.2552    28.8425    35.0889
     13  H    Isotropic =    27.7037   Anisotropy =     5.1259
   XX=    25.8667   YX=     0.1144   ZX=    -2.0491
   XY=    -0.6352   YY=    28.7384   ZY=    -1.5580
   XZ=    -2.1899   YZ=    -2.7364   ZZ=    28.5061
   Eigenvalues:    24.2755    27.7147    31.1210
     14  H    Isotropic =    30.1517   Anisotropy =    10.0347
   XX=    27.7630   YX=    -1.8253   ZX=    -0.0841
   XY=    -1.5333   YY=    25.9944   ZY=     1.1937
   XZ=    -1.0249   YZ=     0.7537   ZZ=    36.6976
   Eigenvalues:    24.9548    28.6588    36.8415
     15  H    Isotropic =    29.6384   Anisotropy =     7.8882
   XX=    31.3270   YX=     2.3980   ZX=     0.6820
   XY=     2.5332   YY=    31.1170   ZY=     3.2053
   XZ=     0.9697   YZ=     3.9265   ZZ=    26.4714
   Eigenvalues:    24.5052    29.5129    34.8973
     16  H    Isotropic =    30.1873   Anisotropy =     6.7677
   XX=    30.4002   YX=    -0.7396   ZX=     1.3958
   XY=    -0.1797   YY=    27.9720   ZY=    -3.0792
   XZ=     2.5433   YZ=    -3.0515   ZZ=    32.1896
   Eigenvalues:    26.2880    29.5748    34.6991
     17  H    Isotropic =    30.3332   Anisotropy =     9.2225
   XX=    30.8747   YX=    -3.3086   ZX=    -0.5833
   XY=    -3.4361   YY=    32.5438   ZY=     3.8278
   XZ=    -0.0529   YZ=     4.0259   ZZ=    27.5812
   Eigenvalues:    25.0410    29.4771    36.4816
     18  H    Isotropic =    30.4264   Anisotropy =     5.1392
   XX=    31.9064   YX=    -0.0362   ZX=    -0.8049
   XY=     0.4706   YY=    29.5296   ZY=    -4.0110
   XZ=    -1.3140   YZ=    -3.4352   ZZ=    29.8430
   Eigenvalues:    25.9035    31.5230    33.8525
     19  H    Isotropic =    29.8821   Anisotropy =     7.9359
   XX=    31.2454   YX=     2.4321   ZX=     1.2760
   XY=     2.3441   YY=    33.2571   ZY=     1.1466
   XZ=     1.4122   YZ=     1.4303   ZZ=    25.1437
   Eigenvalues:    24.7816    29.6919    35.1727
     20  H    Isotropic =    30.2522   Anisotropy =     3.4954
   XX=    30.7663   YX=     0.6313   ZX=     0.0778
   XY=     0.0516   YY=    27.4462   ZY=     0.2580
   XZ=    -0.6064   YZ=    -0.1376   ZZ=    32.5440
   Eigenvalues:    27.4100    30.7641    32.5825
     21  H    Isotropic =    30.5403   Anisotropy =    10.6708
   XX=    34.1685   YX=    -5.1386   ZX=    -0.8739
   XY=    -4.6112   YY=    30.3163   ZY=     2.1510
   XZ=    -0.0921   YZ=     1.1594   ZZ=    27.1360
   Eigenvalues:    25.8950    28.0717    37.6541
     22  H    Isotropic =    30.5122   Anisotropy =    10.7494
   XX=    35.1410   YX=     4.2108   ZX=     2.5629
   XY=     3.0574   YY=    29.7795   ZY=     0.3938
   XZ=     2.7666   YZ=     1.4110   ZZ=    26.6163
   Eigenvalues:    25.8447    28.0135    37.6785
     23  H    Isotropic =    30.8764   Anisotropy =     7.8961
   XX=    30.1794   YX=    -0.9743   ZX=     2.1545
   XY=    -0.7061   YY=    28.0578   ZY=    -2.9026
   XZ=     1.3535   YZ=    -2.8690   ZZ=    34.3918
   Eigenvalues:    26.9322    29.5565    36.1404
     24  H    Isotropic =    30.9863   Anisotropy =    18.2108
   XX=    33.4807   YX=    -7.4901   ZX=     6.9015
   XY=    -7.8482   YY=    32.1602   ZY=    -2.2544
   XZ=     6.0136   YZ=    -2.4342   ZZ=    27.3181
   Eigenvalues:    22.4673    27.3649    43.1268
     25  H    Isotropic =    29.0058   Anisotropy =     6.3604
   XX=    28.6851   YX=    -0.2624   ZX=    -2.2333
   XY=     0.1782   YY=    32.7558   ZY=     1.5448
   XZ=    -1.6927   YZ=     2.0760   ZZ=    25.5766
   Eigenvalues:    24.3147    29.4567    33.2461
     26  H    Isotropic =    30.7396   Anisotropy =     6.1090
   XX=    29.3059   YX=    -1.5698   ZX=    -1.2536
   XY=    -1.2920   YY=    34.0010   ZY=    -1.3791
   XZ=    -1.2283   YZ=    -2.4092   ZZ=    28.9120
   Eigenvalues:    27.0445    30.3620    34.8123
     27  H    Isotropic =    30.3301   Anisotropy =     7.2617
   XX=    32.6665   YX=     2.8349   ZX=     2.1078
   XY=     1.7945   YY=    26.1125   ZY=    -1.7372
   XZ=     3.1210   YZ=    -0.5658   ZZ=    32.2113
   Eigenvalues:    24.8543    30.9647    35.1713
     28  H    Isotropic =    30.6586   Anisotropy =    10.7271
   XX=    30.6669   YX=     0.4974   ZX=    -3.8049
   XY=     1.2136   YY=    26.5556   ZY=    -2.6035
   XZ=    -4.2886   YZ=    -2.2660   ZZ=    34.7531
   Eigenvalues:    25.8668    28.2989    37.8100
     29  H    Isotropic =    30.4463   Anisotropy =     7.0488
   XX=    31.0209   YX=     2.7375   ZX=     0.8768
   XY=     1.3907   YY=    32.0490   ZY=     3.2094
   XZ=     0.6116   YZ=     3.5057   ZZ=    28.2692
   Eigenvalues:    26.2677    29.9258    35.1455
     30  H    Isotropic =    30.9613   Anisotropy =    10.5903
   XX=    33.7809   YX=    -2.0710   ZX=     4.9857
   XY=    -1.3537   YY=    28.4575   ZY=    -1.9653
   XZ=     4.2867   YZ=    -3.3397   ZZ=    30.6455
   Eigenvalues:    26.3191    28.5433    38.0216
     31  H    Isotropic =    30.6650   Anisotropy =    10.5549
   XX=    35.9856   YX=     1.9852   ZX=    -3.5757
   XY=     2.2944   YY=    26.6397   ZY=    -1.5767
   XZ=    -2.5821   YZ=    -0.4534   ZZ=    29.3697
   Eigenvalues:    26.1227    28.1706    37.7016
 End of Minotr Frequency-dependent properties file   721 does not exist.
 End of Minotr Frequency-dependent properties file   722 does not exist.

 **********************************************************************

            Population analysis using the SCF density.

 **********************************************************************

 Orbital symmetries:
       Occupied  (A) (A) (A) (A) (A) (A) (A) (A) (A) (A) (A) (A)
                 (A) (A) (A) (A) (A) (A) (A) (A) (A) (A) (A) (A)
                 (A) (A) (A) (A) (A) (A) (A) (A) (A) (A) (A) (A)
                 (A) (A) (A) (A) (A) (A) (A) (A)
       Virtual   (A) (A) (A) (A) (A) (A) (A) (A) (A) (A) (A) (A)
                 (A) (A) (A) (A) (A) (A) (A) (A) (A) (A) (A) (A)
                 (A) (A) (A) (A) (A) (A) (A) (A) (A) (A) (A) (A)
                 (A) (A) (A) (A) (A) (A) (A) (A) (A) (A) (A) (A)
                 (A) (A) (A) (A) (A) (A) (A) (A) (A) (A) (A) (A)
                 (A) (A) (A) (A) (A) (A) (A) (A) (A) (A) (A) (A)
                 (A) (A) (A) (A) (A) (A) (A) (A) (A) (A) (A) (A)
                 (A) (A) (A) (A) (A) (A) (A) (A) (A) (A) (A) (A)
                 (A) (A) (A) (A) (A) (A) (A) (A) (A) (A) (A) (A)
                 (A) (A) (A) (A) (A) (A) (A) (A) (A) (A) (A) (A)
                 (A) (A) (A) (A) (A) (A) (A) (A) (A) (A) (A) (A)
                 (A) (A) (A) (A) (A) (A) (A) (A) (A) (A) (A) (A)
                 (A) (A) (A) (A) (A) (A) (A) (A) (A) (A) (A) (A)
                 (A) (A) (A) (A) (A) (A) (A) (A) (A) (A) (A) (A)
                 (A) (A) (A) (A) (A) (A) (A) (A) (A) (A) (A) (A)
                 (A) (A) (A) (A) (A) (A) (A) (A) (A) (A) (A) (A)
                 (A) (A) (A) (A) (A) (A) (A) (A) (A) (A) (A) (A)
                 (A) (A) (A) (A) (A) (A) (A) (A) (A) (A) (A) (A)
                 (A) (A) (A) (A) (A) (A) (A) (A) (A) (A) (A) (A)
                 (A) (A) (A) (A) (A) (A) (A) (A) (A) (A) (A) (A)
                 (A) (A) (A) (A) (A) (A) (A) (A) (A) (A) (A) (A)
                 (A) (A) (A) (A) (A) (A) (A) (A) (A) (A) (A) (A)
                 (A)
 The electronic state is 1-A.
 Alpha  occ. eigenvalues --  -19.24661 -10.29483 -10.25028 -10.24970 -10.24862
 Alpha  occ. eigenvalues --  -10.24379 -10.23828 -10.23610 -10.23300 -10.23257
 Alpha  occ. eigenvalues --  -10.23060  -1.05151  -0.85941  -0.81941  -0.76701
 Alpha  occ. eigenvalues --   -0.75523  -0.70456  -0.69375  -0.62961  -0.61991
 Alpha  occ. eigenvalues --   -0.58725  -0.54772  -0.51462  -0.49046  -0.48032
 Alpha  occ. eigenvalues --   -0.45816  -0.44826  -0.43500  -0.42857  -0.41791
 Alpha  occ. eigenvalues --   -0.40695  -0.39497  -0.38911  -0.38422  -0.37184
 Alpha  occ. eigenvalues --   -0.36803  -0.34915  -0.34059  -0.33872  -0.33350
 Alpha  occ. eigenvalues --   -0.31583  -0.31108  -0.30106  -0.27908
 Alpha virt. eigenvalues --    0.00349   0.01663   0.02059   0.02306   0.03814
 Alpha virt. eigenvalues --    0.04061   0.04755   0.04948   0.05681   0.06495
 Alpha virt. eigenvalues --    0.07508   0.07668   0.08370   0.08569   0.08874
 Alpha virt. eigenvalues --    0.09621   0.10161   0.10730   0.11543   0.11727
 Alpha virt. eigenvalues --    0.12019   0.13052   0.13695   0.14345   0.14832
 Alpha virt. eigenvalues --    0.15103   0.15631   0.15909   0.16179   0.16517
 Alpha virt. eigenvalues --    0.17788   0.18203   0.19167   0.19562   0.19904
 Alpha virt. eigenvalues --    0.20529   0.20624   0.20836   0.21343   0.22065
 Alpha virt. eigenvalues --    0.22354   0.23006   0.23984   0.24548   0.24802
 Alpha virt. eigenvalues --    0.25433   0.25929   0.26181   0.26654   0.27413
 Alpha virt. eigenvalues --    0.28015   0.28570   0.29345   0.29762   0.30098
 Alpha virt. eigenvalues --    0.30605   0.31597   0.32011   0.32923   0.33928
 Alpha virt. eigenvalues --    0.34585   0.35150   0.35782   0.36185   0.37091
 Alpha virt. eigenvalues --    0.37910   0.38943   0.40551   0.41563   0.42082
 Alpha virt. eigenvalues --    0.43411   0.44140   0.47592   0.49840   0.52105
 Alpha virt. eigenvalues --    0.62734   0.64578   0.65389   0.66036   0.67496
 Alpha virt. eigenvalues --    0.68898   0.69360   0.70069   0.71701   0.72592
 Alpha virt. eigenvalues --    0.73192   0.74354   0.74591   0.75022   0.76936
 Alpha virt. eigenvalues --    0.78087   0.80026   0.81038   0.83252   0.83643
 Alpha virt. eigenvalues --    0.84996   0.88382   0.89423   0.90650   0.91314
 Alpha virt. eigenvalues --    0.93968   0.96261   0.98122   0.99487   1.00601
 Alpha virt. eigenvalues --    1.00853   1.02211   1.02574   1.03432   1.04344
 Alpha virt. eigenvalues --    1.06615   1.07119   1.09356   1.10102   1.11514
 Alpha virt. eigenvalues --    1.13174   1.14318   1.15064   1.15823   1.16920
 Alpha virt. eigenvalues --    1.18294   1.18363   1.20545   1.20617   1.23631
 Alpha virt. eigenvalues --    1.24899   1.25867   1.27304   1.30714   1.33785
 Alpha virt. eigenvalues --    1.36216   1.40062   1.41836   1.42601   1.45099
 Alpha virt. eigenvalues --    1.48907   1.49390   1.52501   1.54471   1.57517
 Alpha virt. eigenvalues --    1.58859   1.60124   1.62496   1.65423   1.66501
 Alpha virt. eigenvalues --    1.68394   1.71977   1.76073   1.77904   1.81031
 Alpha virt. eigenvalues --    1.82195   1.83609   1.85286   1.87288   1.88331
 Alpha virt. eigenvalues --    1.89575   1.90139   1.92191   1.93578   1.95164
 Alpha virt. eigenvalues --    1.97603   1.98840   2.00461   2.00894   2.03507
 Alpha virt. eigenvalues --    2.04947   2.06193   2.06293   2.07664   2.07948
 Alpha virt. eigenvalues --    2.08906   2.11632   2.13024   2.13879   2.15090
 Alpha virt. eigenvalues --    2.15367   2.17045   2.18497   2.19004   2.20065
 Alpha virt. eigenvalues --    2.21549   2.23222   2.23789   2.25428   2.31117
 Alpha virt. eigenvalues --    2.32272   2.34568   2.34944   2.36793   2.37825
 Alpha virt. eigenvalues --    2.38680   2.39512   2.41213   2.42351   2.46054
 Alpha virt. eigenvalues --    2.47334   2.49580   2.52921   2.53501   2.55711
 Alpha virt. eigenvalues --    2.58852   2.60817   2.63125   2.63550   2.64489
 Alpha virt. eigenvalues --    2.66743   2.67636   2.68979   2.71496   2.72152
 Alpha virt. eigenvalues --    2.74392   2.75769   2.77302   2.77937   2.79749
 Alpha virt. eigenvalues --    2.80222   2.81419   2.82672   2.84021   2.86111
 Alpha virt. eigenvalues --    2.86465   2.89144   2.89650   2.91509   2.92106
 Alpha virt. eigenvalues --    2.92417   2.93600   2.96314   2.97304   2.98320
 Alpha virt. eigenvalues --    3.00463   3.02931   3.06010   3.17115   3.29004
 Alpha virt. eigenvalues --    3.29544   3.31213   3.35719   3.38462   3.39352
 Alpha virt. eigenvalues --    3.42117   3.43045   3.47594   3.49001   3.50477
 Alpha virt. eigenvalues --    3.51160   3.53569   3.54097   3.55486   3.56477
 Alpha virt. eigenvalues --    3.57519   3.59448   3.61738   3.64238   4.35968
 Alpha virt. eigenvalues --    4.42566   4.50633   4.51411   4.56493   4.60920
 Alpha virt. eigenvalues --    4.62444   4.76333   4.83838   4.87815   4.92693
          Condensed to atoms (all electrons):
              1          2          3          4          5          6
     1  C    6.711383   0.099901   0.122568  -0.013310  -0.119034  -0.273985
     2  C    0.099901   7.380555   0.308774  -1.328579   0.026024  -0.344376
     3  C    0.122568   0.308774   6.008411  -0.204128   0.126294  -0.137531
     4  C   -0.013310  -1.328579  -0.204128   7.727493  -0.410544  -0.077572
     5  C   -0.119034   0.026024   0.126294  -0.410544   6.263422  -0.363477
     6  C   -0.273985  -0.344376  -0.137531  -0.077572  -0.363477   6.479755
     7  C   -0.502557  -0.261671  -0.113359   0.081640   0.069247   0.237941
     8  O    0.021175   0.280014   0.037392  -0.084566  -0.008620  -0.146760
     9  C   -0.054700   0.214055  -0.281087  -0.391193   0.092977   0.066920
    10  C    0.056790   0.003686   0.076009   0.000913  -0.175790   0.029293
    11  C   -0.008879  -0.211580  -0.056552   0.226681   0.069290  -0.015562
    12  H    0.243135  -0.061027  -0.044277   0.044212   0.011803   0.014567
    13  H    0.014376   0.135082  -0.043136   0.124818  -0.015874   0.052224
    14  H   -0.000879  -0.087989   0.352795   0.044411  -0.026209   0.021670
    15  H    0.029161   0.032019   0.414106  -0.072883  -0.066959  -0.016226
    16  H   -0.011232   0.001612   0.022296   0.261115   0.060661   0.004567
    17  H   -0.019233   0.012572  -0.003804   0.040191   0.278091   0.037596
    18  H   -0.111792  -0.059279  -0.089681   0.071669   0.458309   0.032908
    19  H    0.008197   0.024398   0.004564   0.038675   0.029681   0.265188
    20  H   -0.078055  -0.168089  -0.028133   0.094277   0.005898   0.462456
    21  H   -0.094315  -0.003200  -0.000167   0.002209   0.002921   0.021961
    22  H   -0.100726  -0.001295  -0.006442   0.002229   0.027401  -0.000538
    23  H   -0.129787  -0.002113  -0.002749   0.004592   0.004486   0.004254
    24  H   -0.003175   0.082851   0.008985  -0.078097  -0.002063   0.018569
    25  H    0.005696  -0.037266   0.005521  -0.045234  -0.021036   0.011294
    26  H    0.006571  -0.005958   0.016436  -0.014930  -0.029180   0.002764
    27  H    0.005323   0.043208  -0.026025  -0.003078   0.011307  -0.035155
    28  H   -0.001018  -0.007066  -0.000514   0.028561  -0.000486   0.004283
    29  H    0.001511  -0.000937  -0.009162   0.008616  -0.011850   0.001566
    30  H   -0.000042  -0.005821   0.021550  -0.002178   0.003309   0.000951
    31  H   -0.000183  -0.011758   0.002823   0.037437   0.000288   0.002014
              7          8          9         10         11         12
     1  C   -0.502557   0.021175  -0.054700   0.056790  -0.008879   0.243135
     2  C   -0.261671   0.280014   0.214055   0.003686  -0.211580  -0.061027
     3  C   -0.113359   0.037392  -0.281087   0.076009  -0.056552  -0.044277
     4  C    0.081640  -0.084566  -0.391193   0.000913   0.226681   0.044212
     5  C    0.069247  -0.008620   0.092977  -0.175790   0.069290   0.011803
     6  C    0.237941  -0.146760   0.066920   0.029293  -0.015562   0.014567
     7  C    5.761246  -0.006555   0.011123  -0.002175   0.005081   0.061445
     8  O   -0.006555   8.276571  -0.015350   0.007070  -0.016343  -0.000671
     9  C    0.011123  -0.015350   6.648012  -0.117292  -0.110459  -0.001969
    10  C   -0.002175   0.007070  -0.117292   5.596376  -0.178559  -0.002030
    11  C    0.005081  -0.016343  -0.110459  -0.178559   5.638764   0.000631
    12  H    0.061445  -0.000671  -0.001969  -0.002030   0.000631   0.574781
    13  H    0.019733  -0.045129   0.003078   0.000627   0.003771   0.003357
    14  H    0.012223  -0.000118   0.000433  -0.004577   0.008909   0.002749
    15  H   -0.004052  -0.000469   0.028233  -0.010049  -0.009208  -0.000049
    16  H    0.000779  -0.013819  -0.047516  -0.008450   0.002695  -0.000092
    17  H   -0.021755   0.000081  -0.000842   0.006889  -0.002702  -0.005216
    18  H    0.023496  -0.000272  -0.008252  -0.010227   0.005349   0.005233
    19  H   -0.028737  -0.000505  -0.008689   0.000371   0.000567  -0.004517
    20  H    0.027547   0.000059   0.009238  -0.020411   0.004568   0.004878
    21  H    0.429465   0.000028  -0.000043   0.000191  -0.000056  -0.003824
    22  H    0.438430  -0.000012   0.000676  -0.000377   0.000041  -0.003619
    23  H    0.471242  -0.000067  -0.001253   0.000738   0.000003   0.004821
    24  H    0.000768   0.218505  -0.004258   0.010069  -0.017327   0.000000
    25  H   -0.000274   0.012473   0.358453   0.039618  -0.050369  -0.000001
    26  H   -0.000053   0.000115  -0.072923   0.458245  -0.013387  -0.000003
    27  H   -0.003043  -0.000146  -0.055067   0.421689  -0.001530  -0.000011
    28  H    0.000093   0.000556  -0.113574   0.443787   0.003815   0.000000
    29  H    0.000044   0.000072  -0.072531   0.007269   0.425463   0.000000
    30  H    0.000057  -0.000446  -0.110706  -0.000981   0.452244   0.000000
    31  H    0.000052   0.000260  -0.128452   0.003710   0.452109   0.000000
             13         14         15         16         17         18
     1  C    0.014376  -0.000879   0.029161  -0.011232  -0.019233  -0.111792
     2  C    0.135082  -0.087989   0.032019   0.001612   0.012572  -0.059279
     3  C   -0.043136   0.352795   0.414106   0.022296  -0.003804  -0.089681
     4  C    0.124818   0.044411  -0.072883   0.261115   0.040191   0.071669
     5  C   -0.015874  -0.026209  -0.066959   0.060661   0.278091   0.458309
     6  C    0.052224   0.021670  -0.016226   0.004567   0.037596   0.032908
     7  C    0.019733   0.012223  -0.004052   0.000779  -0.021755   0.023496
     8  O   -0.045129  -0.000118  -0.000469  -0.013819   0.000081  -0.000272
     9  C    0.003078   0.000433   0.028233  -0.047516  -0.000842  -0.008252
    10  C    0.000627  -0.004577  -0.010049  -0.008450   0.006889  -0.010227
    11  C    0.003771   0.008909  -0.009208   0.002695  -0.002702   0.005349
    12  H    0.003357   0.002749  -0.000049  -0.000092  -0.005216   0.005233
    13  H    0.621920   0.002676  -0.000225  -0.011674  -0.000056   0.000096
    14  H    0.002676   0.547503  -0.028707  -0.007765  -0.005580   0.004568
    15  H   -0.000225  -0.028707   0.550346  -0.001108  -0.001882  -0.004232
    16  H   -0.011674  -0.007765  -0.001108   0.599692  -0.000136  -0.000153
    17  H   -0.000056  -0.005580  -0.001882  -0.000136   0.558104  -0.030385
    18  H    0.000096   0.004568  -0.004232  -0.000153  -0.030385   0.549015
    19  H   -0.007034  -0.000034   0.000010  -0.000145  -0.000127  -0.000034
    20  H    0.005178   0.000060  -0.000037  -0.000153  -0.000049   0.002269
    21  H    0.000002   0.000000  -0.000002   0.000000   0.002729  -0.000259
    22  H    0.000000   0.000002   0.000002   0.000000   0.000003   0.000016
    23  H   -0.000002   0.000000   0.000000   0.000000  -0.000163   0.003464
    24  H   -0.007082  -0.000005  -0.000006   0.004118   0.000000   0.000001
    25  H    0.000253  -0.000124   0.000071  -0.001925   0.000004  -0.000030
    26  H   -0.000002  -0.000021   0.000410  -0.000005   0.000149   0.000224
    27  H   -0.000052  -0.000023   0.000210  -0.000062   0.000039  -0.001082
    28  H    0.000003   0.000003  -0.000038  -0.000111  -0.000003   0.000199
    29  H   -0.000002  -0.000127   0.001593  -0.000501   0.000004  -0.000003
    30  H    0.000000  -0.000004   0.000035   0.003678   0.000000  -0.000002
    31  H    0.000002   0.000002  -0.000101   0.000275   0.000000  -0.000001
             19         20         21         22         23         24
     1  C    0.008197  -0.078055  -0.094315  -0.100726  -0.129787  -0.003175
     2  C    0.024398  -0.168089  -0.003200  -0.001295  -0.002113   0.082851
     3  C    0.004564  -0.028133  -0.000167  -0.006442  -0.002749   0.008985
     4  C    0.038675   0.094277   0.002209   0.002229   0.004592  -0.078097
     5  C    0.029681   0.005898   0.002921   0.027401   0.004486  -0.002063
     6  C    0.265188   0.462456   0.021961  -0.000538   0.004254   0.018569
     7  C   -0.028737   0.027547   0.429465   0.438430   0.471242   0.000768
     8  O   -0.000505   0.000059   0.000028  -0.000012  -0.000067   0.218505
     9  C   -0.008689   0.009238  -0.000043   0.000676  -0.001253  -0.004258
    10  C    0.000371  -0.020411   0.000191  -0.000377   0.000738   0.010069
    11  C    0.000567   0.004568  -0.000056   0.000041   0.000003  -0.017327
    12  H   -0.004517   0.004878  -0.003824  -0.003619   0.004821   0.000000
    13  H   -0.007034   0.005178   0.000002   0.000000  -0.000002  -0.007082
    14  H   -0.000034   0.000060   0.000000   0.000002   0.000000  -0.000005
    15  H    0.000010  -0.000037  -0.000002   0.000002   0.000000  -0.000006
    16  H   -0.000145  -0.000153   0.000000   0.000000   0.000000   0.004118
    17  H   -0.000127  -0.000049   0.002729   0.000003  -0.000163   0.000000
    18  H   -0.000034   0.002269  -0.000259   0.000016   0.003464   0.000001
    19  H    0.537037  -0.029289   0.000010   0.002611  -0.000152  -0.000138
    20  H   -0.029289   0.541207  -0.000008  -0.000238   0.002897  -0.000085
    21  H    0.000010  -0.000008   0.533968  -0.025491  -0.028163   0.000000
    22  H    0.002611  -0.000238  -0.025491   0.531131  -0.027723   0.000000
    23  H   -0.000152   0.002897  -0.028163  -0.027723   0.532980   0.000000
    24  H   -0.000138  -0.000085   0.000000   0.000000   0.000000   0.404708
    25  H   -0.000021   0.000281   0.000000   0.000000   0.000000  -0.000109
    26  H   -0.000002   0.000008   0.000000   0.000000  -0.000006   0.000001
    27  H    0.000113   0.001690   0.000000   0.000002   0.000013  -0.000002
    28  H   -0.000001   0.000129   0.000000   0.000000   0.000000  -0.000006
    29  H    0.000000   0.000001   0.000000   0.000000   0.000000   0.000000
    30  H    0.000000  -0.000001   0.000000   0.000000   0.000000   0.000033
    31  H    0.000000   0.000000   0.000000   0.000000   0.000000   0.000002
             25         26         27         28         29         30
     1  C    0.005696   0.006571   0.005323  -0.001018   0.001511  -0.000042
     2  C   -0.037266  -0.005958   0.043208  -0.007066  -0.000937  -0.005821
     3  C    0.005521   0.016436  -0.026025  -0.000514  -0.009162   0.021550
     4  C   -0.045234  -0.014930  -0.003078   0.028561   0.008616  -0.002178
     5  C   -0.021036  -0.029180   0.011307  -0.000486  -0.011850   0.003309
     6  C    0.011294   0.002764  -0.035155   0.004283   0.001566   0.000951
     7  C   -0.000274  -0.000053  -0.003043   0.000093   0.000044   0.000057
     8  O    0.012473   0.000115  -0.000146   0.000556   0.000072  -0.000446
     9  C    0.358453  -0.072923  -0.055067  -0.113574  -0.072531  -0.110706
    10  C    0.039618   0.458245   0.421689   0.443787   0.007269  -0.000981
    11  C   -0.050369  -0.013387  -0.001530   0.003815   0.425463   0.452244
    12  H   -0.000001  -0.000003  -0.000011   0.000000   0.000000   0.000000
    13  H    0.000253  -0.000002  -0.000052   0.000003  -0.000002   0.000000
    14  H   -0.000124  -0.000021  -0.000023   0.000003  -0.000127  -0.000004
    15  H    0.000071   0.000410   0.000210  -0.000038   0.001593   0.000035
    16  H   -0.001925  -0.000005  -0.000062  -0.000111  -0.000501   0.003678
    17  H    0.000004   0.000149   0.000039  -0.000003   0.000004   0.000000
    18  H   -0.000030   0.000224  -0.001082   0.000199  -0.000003  -0.000002
    19  H   -0.000021  -0.000002   0.000113  -0.000001   0.000000   0.000000
    20  H    0.000281   0.000008   0.001690   0.000129   0.000001  -0.000001
    21  H    0.000000   0.000000   0.000000   0.000000   0.000000   0.000000
    22  H    0.000000   0.000000   0.000002   0.000000   0.000000   0.000000
    23  H    0.000000  -0.000006   0.000013   0.000000   0.000000   0.000000
    24  H   -0.000109   0.000001  -0.000002  -0.000006   0.000000   0.000033
    25  H    0.561065   0.004905  -0.003387  -0.004504   0.004841  -0.004048
    26  H    0.004905   0.539843  -0.028926  -0.029376   0.003203   0.000006
    27  H   -0.003387  -0.028926   0.542143  -0.025872  -0.000012  -0.000141
    28  H   -0.004504  -0.029376  -0.025872   0.535132  -0.000160   0.000102
    29  H    0.004841   0.003203  -0.000012  -0.000160   0.537444  -0.029141
    30  H   -0.004048   0.000006  -0.000141   0.000102  -0.029141   0.538739
    31  H   -0.003463  -0.000306   0.000063   0.002838  -0.028360  -0.024915
             31
     1  C   -0.000183
     2  C   -0.011758
     3  C    0.002823
     4  C    0.037437
     5  C    0.000288
     6  C    0.002014
     7  C    0.000052
     8  O    0.000260
     9  C   -0.128452
    10  C    0.003710
    11  C    0.452109
    12  H    0.000000
    13  H    0.000002
    14  H    0.000002
    15  H   -0.000101
    16  H    0.000275
    17  H    0.000000
    18  H   -0.000001
    19  H    0.000000
    20  H    0.000000
    21  H    0.000000
    22  H    0.000000
    23  H    0.000000
    24  H    0.000002
    25  H   -0.003463
    26  H   -0.000306
    27  H    0.000063
    28  H    0.002838
    29  H   -0.028360
    30  H   -0.024915
    31  H    0.532475
 Mulliken atomic charges:
              1
     1  C    0.197111
     2  C   -0.046746
     3  C   -0.481776
     4  C   -0.113445
     5  C   -0.290288
     6  C   -0.361558
     7  C   -0.707422
     8  O   -0.514523
     9  C    0.162957
    10  C   -0.632421
    11  C   -0.607469
    12  H    0.155693
    13  H    0.143068
    14  H    0.164158
    15  H    0.160035
    16  H    0.143361
    17  H    0.155479
    18  H    0.158867
    19  H    0.168003
    20  H    0.161906
    21  H    0.162044
    22  H    0.163918
    23  H    0.162688
    24  H    0.363743
    25  H    0.167314
    26  H    0.162196
    27  H    0.157813
    28  H    0.163228
    29  H    0.161156
    30  H    0.157720
    31  H    0.163189
 Sum of Mulliken atomic charges =   0.00000
 Mulliken charges with hydrogens summed into heavy atoms:
              1
     1  C    0.352804
     2  C    0.096321
     3  C   -0.157583
     4  C    0.029916
     5  C    0.024059
     6  C   -0.031649
     7  C   -0.218772
     8  O   -0.150780
     9  C    0.330272
    10  C   -0.149184
    11  C   -0.125404
 Sum of Mulliken charges with hydrogens summed into heavy atoms =   0.00000
 Electronic spatial extent (au):  <R**2>=           2041.1768
 Charge=              0.0000 electrons
 Dipole moment (field-independent basis, Debye):
    X=             -0.4503    Y=             -0.7859    Z=             -1.5833  Tot=              1.8241
 Quadrupole moment (field-independent basis, Debye-Ang):
   XX=            -70.1383   YY=            -74.9094   ZZ=            -71.6994
   XY=             -2.3379   XZ=              0.5846   YZ=             -3.9471
 Traceless Quadrupole moment (field-independent basis, Debye-Ang):
   XX=              2.1107   YY=             -2.6604   ZZ=              0.5497
   XY=             -2.3379   XZ=              0.5846   YZ=             -3.9471
 Octapole moment (field-independent basis, Debye-Ang**2):
  XXX=             -3.5070  YYY=              2.9075  ZZZ=             -1.2451  XYY=             -7.8862
  XXY=             12.3963  XXZ=             -1.0713  XZZ=             -1.2899  YZZ=              4.1493
  YYZ=            -12.4830  XYZ=              4.8209
 Hexadecapole moment (field-independent basis, Debye-Ang**3):
 XXXX=          -1712.2211 YYYY=           -720.4417 ZZZZ=           -421.2474 XXXY=            -16.5004
 XXXZ=            -16.0789 YYYX=            -34.1067 YYYZ=            -24.3215 ZZZX=             -3.5750
 ZZZY=             -2.7882 XXYY=           -378.2290 XXZZ=           -350.0838 YYZZ=           -189.0789
 XXYZ=             -2.5994 YYXZ=              9.1631 ZZXY=             -4.5238
 N-N= 6.958051184377D+02 E-N=-2.476935315318D+03  KE= 4.636922981754D+02
 1\1\GINC-COMPUTE-10-2\SP\RmPW1PW91\6-31+G(d,p)\C10H20O1\ASAROTTI.IQUIR
 \19-Sep-2024\0\\# mPW1PW91/6-31+G** nmr scrf=(pcm,solvent=benzene)\\co
 mment\\0,1\C,0,2.120411,-0.168185,-0.243393\C,0,0.11987,1.374211,-0.44
 514\C,0,-0.068253,-1.001881,-1.285501\C,0,-0.864836,0.207268,-0.731745
 \C,0,1.191945,-1.37216,-0.482837\C,0,1.334899,0.989584,0.397134\C,0,3.
 346039,-0.554279,0.592019\O,0,-0.50308,2.488753,0.197139\C,0,-1.891676
 ,-0.098174,0.402055\C,0,-1.411801,-0.976918,1.569655\C,0,-3.17525,-0.7
 05227,-0.193893\H,0,2.477658,0.178835,-1.226961\H,0,0.506172,1.696662,
 -1.429245\H,0,0.243364,-0.760351,-2.312102\H,0,-0.726946,-1.875177,-1.
 373091\H,0,-1.48886,0.56668,-1.566664\H,0,1.740422,-2.157242,-1.02128\
 H,0,0.916964,-1.803354,0.487076\H,0,1.974389,1.875119,0.501963\H,0,1.0
 1555,0.71609,1.410747\H,0,3.918737,-1.355481,0.109464\H,0,4.017439,0.3
 01027,0.733499\H,0,3.047602,-0.911239,1.586195\H,0,-1.228185,2.789195,
 -0.373712\H,0,-2.157269,0.878129,0.827117\H,0,-1.183727,-1.999009,1.24
 4159\H,0,-0.525369,-0.57279,2.065789\H,0,-2.203425,-1.049421,2.325499\
 H,0,-2.981998,-1.677397,-0.665789\H,0,-3.615948,-0.049837,-0.955051\H,
 0,-3.930023,-0.865901,0.585153\\Version=AM64L-G09RevC.01\State=1-A\HF=
 -468.2769592\RMSD=8.268e-09\Dipole=-0.1771716,-0.309186,-0.6229251\Qua
 drupole=1.5692802,-1.9779388,0.4086585,-1.7381877,0.4346599,-2.9346045
 \PG=C01 [X(C10H20O1)]\\@


 ALL MEN WHO EXPLORE
 DEPLORE
 THAT FRUSTRATING HURDLE
 THE GIRDLE.

         -- COLIN FLETCHER
 Job cpu time:  0 days  0 hours  9 minutes 45.2 seconds.
 File lengths (MBytes):  RWF=    121 Int=      0 D2E=      0 Chk=      7 Scr=      1
 Normal termination of Gaussian 09 at Thu Sep 19 10:27:44 2024.
