 Entering Gaussian System, Link 0=g09
 Input=/home/asarotti.iquir/SCF2/04_Mentol13_OptB_NMR_benzene.gjc
 Output=/home/asarotti.iquir/SCF2/04_Mentol13_OptB_NMR_benzene.log
 Initial command:
 /opt/ohpc/pub/apps/software/Gaussian/09/AMD64.SSE4a-enabled/g09/l1.exe /local/asarotti.iquir/Gau-2487728.inp -scrdir=/local/asarotti.iquir/
 Entering Link 1 = /opt/ohpc/pub/apps/software/Gaussian/09/AMD64.SSE4a-enabled/g09/l1.exe PID=   2487729.
  
 Copyright (c) 1988,1990,1992,1993,1995,1998,2003,2009,2011,
            Gaussian, Inc.  All Rights Reserved.
  
 This is part of the Gaussian(R) 09 program.  It is based on
 the Gaussian(R) 03 system (copyright 2003, Gaussian, Inc.),
 the Gaussian(R) 98 system (copyright 1998, Gaussian, Inc.),
 the Gaussian(R) 94 system (copyright 1995, Gaussian, Inc.),
 the Gaussian 92(TM) system (copyright 1992, Gaussian, Inc.),
 the Gaussian 90(TM) system (copyright 1990, Gaussian, Inc.),
 the Gaussian 88(TM) system (copyright 1988, Gaussian, Inc.),
 the Gaussian 86(TM) system (copyright 1986, Carnegie Mellon
 University), and the Gaussian 82(TM) system (copyright 1983,
 Carnegie Mellon University). Gaussian is a federally registered
 trademark of Gaussian, Inc.
  
 This software contains proprietary and confidential information,
 including trade secrets, belonging to Gaussian, Inc.
  
 This software is provided under written license and may be
 used, copied, transmitted, or stored only in accord with that
 written license.
  
 The following legend is applicable only to US Government
 contracts under FAR:
  
                    RESTRICTED RIGHTS LEGEND
  
 Use, reproduction and disclosure by the US Government is
 subject to restrictions as set forth in subparagraphs (a)
 and (c) of the Commercial Computer Software - Restricted
 Rights clause in FAR 52.227-19.
  
 Gaussian, Inc.
 340 Quinnipiac St., Bldg. 40, Wallingford CT 06492
  
  
 ---------------------------------------------------------------
 Warning -- This program may not be used in any manner that
 competes with the business of Gaussian, Inc. or will provide
 assistance to any competitor of Gaussian, Inc.  The licensee
 of this program is prohibited from giving any competitor of
 Gaussian, Inc. access to this program.  By using this program,
 the user acknowledges that Gaussian, Inc. is engaged in the
 business of creating and licensing software in the field of
 computational chemistry and represents and warrants to the
 licensee that it is not a competitor of Gaussian, Inc. and that
 it will not use this program in any manner prohibited above.
 ---------------------------------------------------------------
  

 Cite this work as:
 Gaussian 09, Revision C.01,
 M. J. Frisch, G. W. Trucks, H. B. Schlegel, G. E. Scuseria, 
 M. A. Robb, J. R. Cheeseman, G. Scalmani, V. Barone, B. Mennucci, 
 G. A. Petersson, H. Nakatsuji, M. Caricato, X. Li, H. P. Hratchian, 
 A. F. Izmaylov, J. Bloino, G. Zheng, J. L. Sonnenberg, M. Hada, 
 M. Ehara, K. Toyota, R. Fukuda, J. Hasegawa, M. Ishida, T. Nakajima, 
 Y. Honda, O. Kitao, H. Nakai, T. Vreven, J. A. Montgomery, Jr., 
 J. E. Peralta, F. Ogliaro, M. Bearpark, J. J. Heyd, E. Brothers, 
 K. N. Kudin, V. N. Staroverov, T. Keith, R. Kobayashi, J. Normand, 
 K. Raghavachari, A. Rendell, J. C. Burant, S. S. Iyengar, J. Tomasi, 
 M. Cossi, N. Rega, J. M. Millam, M. Klene, J. E. Knox, J. B. Cross, 
 V. Bakken, C. Adamo, J. Jaramillo, R. Gomperts, R. E. Stratmann, 
 O. Yazyev, A. J. Austin, R. Cammi, C. Pomelli, J. W. Ochterski, 
 R. L. Martin, K. Morokuma, V. G. Zakrzewski, G. A. Voth, 
 P. Salvador, J. J. Dannenberg, S. Dapprich, A. D. Daniels, 
 O. Farkas, J. B. Foresman, J. V. Ortiz, J. Cioslowski, 
 and D. J. Fox, Gaussian, Inc., Wallingford CT, 2010.
 
 ******************************************
 Gaussian 09:  AM64L-G09RevC.01 23-Sep-2011
                19-Sep-2024 
 ******************************************
 %nprocshared=4
 Will use up to    4 processors via shared memory.
 %mem=100mw
 --------------------------------------------------
 # mPW1PW91/6-31+G** nmr scrf=(pcm,solvent=benzene)
 --------------------------------------------------
 1/38=1/1;
 2/12=2,17=6,18=5,40=1/2;
 3/5=1,6=6,7=111,11=2,16=1,25=1,30=1,70=2201,72=12,74=-7/1,2,8,3;
 4//1;
 5/5=2,38=5,53=12/2;
 8/6=1,10=90,11=11/1;
 10/13=100,45=16/2;
 6/7=2,8=2,9=2,10=2,28=1/1;
 99/9=1/99;
 -------
 comment
 -------
 Charge =  0 Multiplicity = 1
 Symbolic Z-Matrix:
 6                     2.12013  -0.19432  -0.2409 
 6                     0.1226    1.36143  -0.47481 
 6                    -0.07751  -1.02539  -1.26075 
 6                    -0.86726   0.20303  -0.74116 
 6                     1.17575  -1.39173  -0.44563 
 6                     1.34149   0.98155   0.37516 
 6                     3.34756  -0.57064   0.59604 
 8                    -0.60709   2.45053   0.09345 
 6                    -1.90664  -0.07023   0.39018 
 6                    -1.43532  -0.89561   1.60033 
 6                    -3.17043  -0.71998  -0.20294 
 1                     2.47333   0.1268   -1.23468 
 1                     0.50873   1.66429  -1.46561 
 1                     0.24081  -0.81242  -2.29171 
 1                    -0.74396  -1.89399  -1.32968 
 1                    -1.48076   0.55695  -1.58151 
 1                     1.71412  -2.20005  -0.95923 
 1                     0.89311  -1.7884    0.53691 
 1                     2.00191   1.85883   0.46125 
 1                     1.02311   0.73243   1.39516 
 1                     3.91017  -1.38755   0.12833 
 1                     4.02799   0.28148   0.71332 
 1                     3.05259  -0.9023    1.59992 
 1                     0.01981   3.17678   0.23524 
 1                    -2.19636   0.91793   0.76439 
 1                    -1.1905   -1.92805   1.32242 
 1                    -0.56154  -0.46261   2.09581 
 1                    -2.23838  -0.94665   2.34598 
 1                    -3.6019   -0.10213  -0.99928 
 1                    -3.93817  -0.85347   0.56867 
 1                    -2.95966  -1.71078  -0.62639 
 
                          Input orientation:                          
 ---------------------------------------------------------------------
 Center     Atomic      Atomic             Coordinates (Angstroms)
 Number     Number       Type             X           Y           Z
 ---------------------------------------------------------------------
      1          6           0        2.120130   -0.194319   -0.240902
      2          6           0        0.122595    1.361433   -0.474809
      3          6           0       -0.077511   -1.025386   -1.260753
      4          6           0       -0.867257    0.203025   -0.741162
      5          6           0        1.175750   -1.391726   -0.445625
      6          6           0        1.341494    0.981548    0.375160
      7          6           0        3.347556   -0.570640    0.596044
      8          8           0       -0.607086    2.450525    0.093452
      9          6           0       -1.906639   -0.070229    0.390179
     10          6           0       -1.435319   -0.895605    1.600329
     11          6           0       -3.170429   -0.719984   -0.202941
     12          1           0        2.473329    0.126799   -1.234682
     13          1           0        0.508729    1.664294   -1.465614
     14          1           0        0.240810   -0.812424   -2.291709
     15          1           0       -0.743964   -1.893993   -1.329680
     16          1           0       -1.480759    0.556952   -1.581507
     17          1           0        1.714124   -2.200053   -0.959233
     18          1           0        0.893108   -1.788398    0.536907
     19          1           0        2.001908    1.858828    0.461247
     20          1           0        1.023111    0.732427    1.395156
     21          1           0        3.910165   -1.387554    0.128334
     22          1           0        4.027993    0.281484    0.713316
     23          1           0        3.052593   -0.902296    1.599915
     24          1           0        0.019810    3.176778    0.235239
     25          1           0       -2.196356    0.917933    0.764386
     26          1           0       -1.190497   -1.928049    1.322417
     27          1           0       -0.561542   -0.462612    2.095806
     28          1           0       -2.238381   -0.946646    2.345979
     29          1           0       -3.601896   -0.102128   -0.999280
     30          1           0       -3.938172   -0.853467    0.568669
     31          1           0       -2.959655   -1.710782   -0.626392
 ---------------------------------------------------------------------
                    Distance matrix (angstroms):
                    1          2          3          4          5
     1  C    0.000000
     2  C    2.542680   0.000000
     3  C    2.561327   2.520844   0.000000
     4  C    3.054934   1.546823   1.550054   0.000000
     5  C    1.538684   2.947859   1.539254   2.608534   0.000000
     6  C    1.538983   1.533778   2.952553   2.594389   2.516662
     7  C    1.532537   3.908965   3.922445   4.489023   2.544798
     8  O    3.813751   1.428802   3.767795   2.411540   4.269895
     9  C    4.077809   2.629763   2.642652   1.560421   3.456305
    10  C    4.064868   3.439115   3.169586   2.648068   3.354064
    11  C    5.316745   3.905152   3.283044   2.538942   4.404476
    12  H    1.102481   2.761825   2.799106   3.377704   2.147613
    13  H    2.747904   1.105676   2.760439   2.133887   3.290069
    14  H    2.849510   2.835622   1.099796   2.159432   2.148890
    15  H    3.503907   3.475561   1.096991   2.181522   2.172355
    16  H    3.915103   2.107775   2.139108   1.099013   3.484912
    17  H    2.168827   3.930880   2.163496   3.533535   1.098650
    18  H    2.156770   3.396865   2.180796   2.949256   1.096633
    19  H    2.173109   2.157642   3.950691   3.524142   3.474342
    20  H    2.176923   2.168720   3.369737   2.901312   2.814924
    21  H    2.182744   4.718728   4.238194   5.109768   2.794006
    22  H    2.185603   4.222566   4.739200   5.107361   3.504007
    23  H    2.181588   4.244271   4.242184   4.697616   2.818921
    24  H    4.000294   1.951976   4.461574   3.253222   4.761408
    25  H    4.569438   2.666426   3.516700   2.131730   4.262599
    26  H    4.050930   3.971766   2.954032   2.984011   3.002123
    27  H    3.567009   3.225406   3.437657   2.930004   3.215635
    28  H    5.123921   4.342612   4.205244   3.568216   4.432543
    29  H    5.772800   4.035953   3.652679   2.763692   4.979508
    30  H    6.147593   4.741778   4.275634   3.501764   5.241251
    31  H    5.315306   4.354509   3.029676   2.837950   4.151632
                    6          7          8          9         10
     6  C    0.000000
     7  C    2.546048   0.000000
     8  O    2.456464   5.001923   0.000000
     9  C    3.414210   5.281984   2.851506   0.000000
    10  C    3.568674   4.897967   3.762078   1.538782   0.000000
    11  C    4.856631   6.568471   4.087873   1.539850   2.508632
    12  H    2.145516   2.145286   4.080760   4.675801   4.935598
    13  H    2.132625   4.159844   2.072170   3.505216   4.442118
    14  H    3.397356   4.248464   4.129741   3.514956   4.238430
    15  H    3.940095   4.711710   4.573716   2.763303   3.171703
    16  H    3.460338   5.415332   2.674773   2.112410   3.498009
    17  H    3.470165   2.782440   5.303210   4.412141   4.262855
    18  H    2.810661   2.740574   4.518374   3.288194   2.710999
    19  H    1.101444   2.780513   2.700413   4.359249   4.549609
    20  H    1.097188   2.782015   2.702561   3.199636   2.955751
    21  H    3.503090   1.096645   5.927700   5.969851   5.566236
    22  H    2.796733   1.096751   5.154894   5.953820   5.658631
    23  H    2.824315   1.097614   5.186915   5.172019   4.487917
    24  H    2.566215   5.024661   0.969817   3.778659   4.534884
    25  H    3.559765   5.742748   2.307546   1.095642   2.137030
    26  H    3.971653   4.792087   4.585045   2.198505   1.096865
    27  H    2.944107   4.188317   3.535232   2.207354   1.093831
    28  H    4.518580   5.865692   4.390418   2.168712   1.097045
    29  H    5.244096   7.145589   4.083992   2.192147   3.475864
    30  H    5.592817   7.291267   4.715753   2.184593   2.707466
    31  H    5.172198   6.524966   4.834173   2.198562   2.818936
                   11         12         13         14         15
    11  C    0.000000
    12  H    5.799443   0.000000
    13  H    4.562382   2.505369   0.000000
    14  H    4.001006   2.642648   2.624566   0.000000
    15  H    2.921570   3.800474   3.774801   1.750734   0.000000
    16  H    2.527053   3.992509   2.279846   2.311575   2.571656
    17  H    5.159597   2.463028   4.079531   2.423151   2.504616
    18  H    4.266288   3.050181   4.009853   3.062529   2.485016
    19  H    5.817601   2.469481   2.445449   4.220879   4.983061
    20  H    4.716905   3.063652   3.052371   4.073271   4.176765
    21  H    7.119705   2.493106   4.839857   4.433007   4.903387
    22  H    7.325281   2.497119   4.364071   4.956770   5.628331
    23  H    6.481476   3.070753   4.738786   4.801972   4.896921
    24  H    5.055134   4.181243   2.327993   4.727371   5.361440
    25  H    2.137127   5.140829   3.584333   4.274767   3.794929
    26  H    2.776017   4.917802   4.854422   4.044152   2.689641
    27  H    3.486656   4.544227   4.284031   4.473972   3.716999
    28  H    2.723432   6.014452   5.375115   5.260471   4.079365
    29  H    1.096388   6.084092   4.498328   4.115979   3.389354
    30  H    1.096644   6.732038   5.500214   5.064320   3.858677
    31  H    1.097915   5.767498   4.911733   3.717970   2.331838
                   16         17         18         19         20
    16  H    0.000000
    17  H    4.265628   0.000000
    18  H    3.952669   1.755552   0.000000
    19  H    4.242251   4.309884   3.812797   0.000000
    20  H    3.893672   3.823622   2.666093   1.760400   0.000000
    21  H    5.980529   2.581773   3.070870   3.780380   3.799242
    22  H    5.973981   3.782781   3.760723   2.580034   3.114092
    23  H    5.727314   3.166214   2.564866   3.166119   2.614009
    24  H    3.523601   5.762619   5.050408   2.390980   2.885632
    25  H    2.479032   5.290043   4.113485   4.313073   3.285917
    26  H    3.833048   3.703611   2.231129   5.027276   3.461717
    27  H    3.925188   4.186958   2.510753   3.825198   2.104793
    28  H    4.273166   5.302617   3.713154   5.422449   3.789549
    29  H    2.296214   5.715152   5.040678   6.114009   5.274514
    30  H    3.556883   6.008014   4.921013   6.530898   5.273753
    31  H    2.870888   4.711091   4.025304   6.208235   5.091007
                   21         22         23         24         25
    21  H    0.000000
    22  H    1.772505   0.000000
    23  H    1.771004   1.771665   0.000000
    24  H    5.998285   4.967576   5.262980   0.000000
    25  H    6.558158   6.257012   5.618079   3.208390   0.000000
    26  H    5.266377   5.699621   4.374127   5.357803   3.069652
    27  H    4.972185   4.850648   3.674398   4.128540   2.520159
    28  H    6.551104   6.591004   5.343499   5.153375   2.445375
    29  H    7.704213   7.829135   7.188763   5.039049   2.475194
    30  H    7.878803   8.047908   7.066587   5.658593   2.492004
    31  H    6.918708   7.388583   6.461983   5.788598   3.070347
                   26         27         28         29         30
    26  H    0.000000
    27  H    1.772349   0.000000
    28  H    1.763205   1.763141   0.000000
    29  H    3.813018   4.353534   3.709871   0.000000
    30  H    3.045091   3.726466   2.461057   1.770891   0.000000
    31  H    2.641019   3.836566   3.152638   1.771803   1.766538
                   31
    31  H    0.000000
 Stoichiometry    C10H20O
 Framework group  C1[X(C10H20O)]
 Deg. of freedom    87
 Full point group                 C1      NOp   1
 Largest Abelian subgroup         C1      NOp   1
 Largest concise Abelian subgroup C1      NOp   1
                         Standard orientation:                         
 ---------------------------------------------------------------------
 Center     Atomic      Atomic             Coordinates (Angstroms)
 Number     Number       Type             X           Y           Z
 ---------------------------------------------------------------------
      1          6           0        2.120130   -0.194319   -0.240902
      2          6           0        0.122595    1.361433   -0.474809
      3          6           0       -0.077511   -1.025386   -1.260753
      4          6           0       -0.867257    0.203025   -0.741162
      5          6           0        1.175750   -1.391726   -0.445625
      6          6           0        1.341494    0.981548    0.375160
      7          6           0        3.347556   -0.570640    0.596044
      8          8           0       -0.607086    2.450525    0.093452
      9          6           0       -1.906639   -0.070229    0.390179
     10          6           0       -1.435319   -0.895605    1.600329
     11          6           0       -3.170429   -0.719984   -0.202941
     12          1           0        2.473329    0.126799   -1.234682
     13          1           0        0.508729    1.664294   -1.465614
     14          1           0        0.240810   -0.812424   -2.291709
     15          1           0       -0.743964   -1.893993   -1.329680
     16          1           0       -1.480759    0.556952   -1.581507
     17          1           0        1.714124   -2.200053   -0.959233
     18          1           0        0.893108   -1.788398    0.536907
     19          1           0        2.001908    1.858828    0.461247
     20          1           0        1.023111    0.732427    1.395156
     21          1           0        3.910165   -1.387554    0.128334
     22          1           0        4.027993    0.281484    0.713316
     23          1           0        3.052593   -0.902296    1.599915
     24          1           0        0.019810    3.176778    0.235239
     25          1           0       -2.196356    0.917933    0.764386
     26          1           0       -1.190497   -1.928049    1.322417
     27          1           0       -0.561542   -0.462612    2.095806
     28          1           0       -2.238381   -0.946646    2.345979
     29          1           0       -3.601896   -0.102128   -0.999280
     30          1           0       -3.938172   -0.853467    0.568669
     31          1           0       -2.959655   -1.710782   -0.626392
 ---------------------------------------------------------------------
 Rotational constants (GHZ):      1.5194170      0.7850650      0.6585429
 Standard basis: 6-31+G(d,p) (6D, 7F)
 There are   309 symmetry adapted basis functions of A   symmetry.
 Integral buffers will be    131072 words long.
 Raffenetti 2 integral format.
 Two-electron integral symmetry is turned on.
   309 basis functions,   492 primitive gaussians,   309 cartesian basis functions
    44 alpha electrons       44 beta electrons
       nuclear repulsion energy       695.9243149120 Hartrees.
 NAtoms=   31 NActive=   31 NUniq=   31 SFac= 1.00D+00 NAtFMM=   60 NAOKFM=F Big=F
 ------------------------------------------------------------------------------
 Polarizable Continuum Model (PCM)
 =================================
 Model                : PCM.
 Atomic radii         : UFF (Universal Force Field).
 Polarization charges : Total charges.
 Charge compensation  : None.
 Solution method      : Matrix inversion.
 Cavity type          : Scaled VdW (van der Waals Surface) (Alpha=1.100).
 Cavity algorithm     : GePol (No added spheres)
                        Default sphere list used, NSphG=   31.
                        Lebedev-Laikov grids with approx.  5.0 points / Ang**2.
                        Smoothing algorithm: Karplus/York (Gamma=1.0000).
                        Polarization charges: spherical gaussians, with
                                              point-specific exponents (IZeta= 3).
                        Self-potential: point-specific (ISelfS= 7).
                        Self-field    : sphere-specific E.n sum rule (ISelfD= 2).
 Solvent              : Benzene, Eps=   2.270600 Eps(inf)=   2.253301
 ------------------------------------------------------------------------------
 One-electron integrals computed using PRISM.
 NBasis=   309 RedAO= T  NBF=   309
 NBsUse=   309 1.00D-06 NBFU=   309
 Harris functional with IExCor=  908 diagonalized for initial guess.
 ExpMin= 4.38D-02 ExpMax= 5.48D+03 ExpMxC= 8.25D+02 IAcc=2 IRadAn=         4 AccDes= 0.00D+00
 HarFok:  IExCor=  908 AccDes= 0.00D+00 IRadAn=         4 IDoV= 1
 ScaDFX=  1.000000  1.000000  1.000000  1.000000
 FoFCou: FMM=F IPFlag=           0 FMFlag=      100000 FMFlg1=           0
         NFxFlg=           0 DoJE=T BraDBF=F KetDBF=T FulRan=T
         Omega=  0.000000  0.000000  1.000000  0.000000  0.000000 ICntrl=     500 IOpCl=  0
         NMat0=    1 NMatS0=    1 NMatT0=    0 NMatD0=    1 NMtDS0=    0 NMtDT0=    0
         I1Cent=           4 NGrid=           0.
 Petite list used in FoFCou.
 Initial guess orbital symmetries:
       Occupied  (A) (A) (A) (A) (A) (A) (A) (A) (A) (A) (A) (A)
                 (A) (A) (A) (A) (A) (A) (A) (A) (A) (A) (A) (A)
                 (A) (A) (A) (A) (A) (A) (A) (A) (A) (A) (A) (A)
                 (A) (A) (A) (A) (A) (A) (A) (A)
       Virtual   (A) (A) (A) (A) (A) (A) (A) (A) (A) (A) (A) (A)
                 (A) (A) (A) (A) (A) (A) (A) (A) (A) (A) (A) (A)
                 (A) (A) (A) (A) (A) (A) (A) (A) (A) (A) (A) (A)
                 (A) (A) (A) (A) (A) (A) (A) (A) (A) (A) (A) (A)
                 (A) (A) (A) (A) (A) (A) (A) (A) (A) (A) (A) (A)
                 (A) (A) (A) (A) (A) (A) (A) (A) (A) (A) (A) (A)
                 (A) (A) (A) (A) (A) (A) (A) (A) (A) (A) (A) (A)
                 (A) (A) (A) (A) (A) (A) (A) (A) (A) (A) (A) (A)
                 (A) (A) (A) (A) (A) (A) (A) (A) (A) (A) (A) (A)
                 (A) (A) (A) (A) (A) (A) (A) (A) (A) (A) (A) (A)
                 (A) (A) (A) (A) (A) (A) (A) (A) (A) (A) (A) (A)
                 (A) (A) (A) (A) (A) (A) (A) (A) (A) (A) (A) (A)
                 (A) (A) (A) (A) (A) (A) (A) (A) (A) (A) (A) (A)
                 (A) (A) (A) (A) (A) (A) (A) (A) (A) (A) (A) (A)
                 (A) (A) (A) (A) (A) (A) (A) (A) (A) (A) (A) (A)
                 (A) (A) (A) (A) (A) (A) (A) (A) (A) (A) (A) (A)
                 (A) (A) (A) (A) (A) (A) (A) (A) (A) (A) (A) (A)
                 (A) (A) (A) (A) (A) (A) (A) (A) (A) (A) (A) (A)
                 (A) (A) (A) (A) (A) (A) (A) (A) (A) (A) (A) (A)
                 (A) (A) (A) (A) (A) (A) (A) (A) (A) (A) (A) (A)
                 (A) (A) (A) (A) (A) (A) (A) (A) (A) (A) (A) (A)
                 (A) (A) (A) (A) (A) (A) (A) (A) (A) (A) (A) (A)
                 (A)
 The electronic state of the initial guess is 1-A.
 Requested convergence on RMS density matrix=1.00D-08 within 128 cycles.
 Requested convergence on MAX density matrix=1.00D-06.
 Requested convergence on             energy=1.00D-06.
 No special actions if energy rises.
 Error on total polarization charges =  0.00934
 SCF Done:  E(RmPW1PW91) =  -468.277071455     A.U. after   12 cycles
             Convg  =    0.8707D-08             -V/T =  2.0099
 Range of M.O.s used for correlation:     1   309
 NBasis=   309 NAE=    44 NBE=    44 NFC=     0 NFV=     0
 NROrb=    309 NOA=    44 NOB=    44 NVA=   265 NVB=   265

 **** Warning!!: The largest alpha MO coefficient is  0.76242481D+02

 NEqPCM:  Using equilibrium solvation (IEInf=0, Eps=   2.2706, EpsInf=   2.2533)
          Differentiating once with respect to magnetic field using GIAOs.
          Electric field/nuclear overlap derivatives assumed to be zero.
 FoFCou: FMM=F IPFlag=           0 FMFlag=    10101102 FMFlg1=           0
         NFxFlg=    40000000 DoJE=F BraDBF=F KetDBF=T FulRan=T
         Omega=  0.000000  0.000000  1.000000  0.000000  0.000000 ICntrl=    6100 IOpCl=  0
         NMat0=    1 NMatS0=    1 NMatT0=    0 NMatD0=    1 NMtDS0=    0 NMtDT0=    0
         I1Cent=           7 NGrid=        1908.
 Symmetry not used in FoFCou.
          There are     3 degrees of freedom in the 1st order CPHF.  IDoFFX=0.
      3 vectors produced by pass  0 Test12= 3.89D-13 3.33D-08 XBig12= 3.17D+01 1.18D+00.
 AX will form     3 AO Fock derivatives at one time.
      3 vectors produced by pass  1 Test12= 3.89D-13 3.33D-08 XBig12= 6.88D-02 6.26D-02.
      3 vectors produced by pass  2 Test12= 3.89D-13 3.33D-08 XBig12= 1.58D-04 3.47D-03.
      3 vectors produced by pass  3 Test12= 3.89D-13 3.33D-08 XBig12= 4.62D-07 1.42D-04.
      3 vectors produced by pass  4 Test12= 3.89D-13 3.33D-08 XBig12= 1.26D-09 5.20D-06.
      3 vectors produced by pass  5 Test12= 3.89D-13 3.33D-08 XBig12= 3.52D-12 3.91D-07.
 Inverted reduced A of dimension    18 with in-core refinement.
 Calculating GIAO nuclear magnetic shielding tensors.
 SCF GIAO Magnetic shielding tensor (ppm):
      1  C    Isotropic =   161.7143   Anisotropy =     9.0676
   XX=   164.0927   YX=     1.9624   ZX=     3.1552
   XY=     3.2415   YY=   161.7097   ZY=     1.6173
   XZ=     5.4497   YZ=    -0.1959   ZZ=   159.3404
   Eigenvalues:   156.6854   160.6981   167.7593
      2  C    Isotropic =   122.3488   Anisotropy =    44.7691
   XX=   119.8018   YX=   -20.5624   ZX=    -5.0160
   XY=   -15.9006   YY=   130.9687   ZY=    14.2255
   XZ=    -6.6488   YZ=    18.3163   ZZ=   116.2758
   Eigenvalues:   102.7469   112.1046   152.1949
      3  C    Isotropic =   169.8800   Anisotropy =    18.3974
   XX=   173.8253   YX=    -7.6474   ZX=     6.5706
   XY=   -10.1034   YY=   166.6249   ZY=     0.3464
   XZ=     5.5235   YZ=    -1.8391   ZZ=   169.1898
   Eigenvalues:   159.6986   167.7965   182.1449
      4  C    Isotropic =   152.2266   Anisotropy =    19.6720
   XX=   156.8373   YX=    11.5964   ZX=    -7.7740
   XY=     2.1932   YY=   146.7532   ZY=    -0.9889
   XZ=    -5.9727   YZ=    -6.5247   ZZ=   153.0892
   Eigenvalues:   143.2444   148.0941   165.3412
      5  C    Isotropic =   163.0219   Anisotropy =    17.8103
   XX=   169.3785   YX=     4.3555   ZX=     6.1740
   XY=     9.9502   YY=   161.9291   ZY=     0.9775
   XZ=     2.0415   YZ=     2.7906   ZZ=   157.7579
   Eigenvalues:   156.3736   157.7966   174.8954
      6  C    Isotropic =   153.3940   Anisotropy =    33.1134
   XX=   158.8553   YX=   -20.7503   ZX=     5.6459
   XY=   -14.7544   YY=   156.3176   ZY=     6.9201
   XZ=     5.3783   YZ=     0.2727   ZZ=   145.0090
   Eigenvalues:   135.4784   149.2339   175.4696
      7  C    Isotropic =   173.3742   Anisotropy =    37.5632
   XX=   188.0287   YX=    -5.4717   ZX=    13.8479
   XY=    -8.0296   YY=   165.2450   ZY=    -2.4328
   XZ=    18.6421   YZ=    -3.0893   ZZ=   166.8489
   Eigenvalues:   157.9425   163.7638   198.4163
      8  O    Isotropic =   275.2523   Anisotropy =    60.3472
   XX=   279.5786   YX=    17.9308   ZX=    22.6244
   XY=    -0.1262   YY=   307.7959   ZY=    17.4207
   XZ=    12.5866   YZ=    12.5917   ZZ=   238.3823
   Eigenvalues:   230.2555   280.0175   315.4837
      9  C    Isotropic =   168.6504   Anisotropy =    10.6233
   XX=   175.7262   YX=    -0.3004   ZX=    -0.4245
   XY=     0.2576   YY=   155.8454   ZY=    -6.1048
   XZ=     0.3375   YZ=    -3.3312   ZZ=   174.3794
   Eigenvalues:   154.7135   175.5050   175.7326
     10  C    Isotropic =   173.0821   Anisotropy =    22.3220
   XX=   173.6158   YX=     1.3184   ZX=     4.1181
   XY=    -3.0290   YY=   165.7512   ZY=   -11.8770
   XZ=     9.3635   YZ=    -8.1971   ZZ=   179.8794
   Eigenvalues:   160.0794   171.2035   187.9635
     11  C    Isotropic =   171.6750   Anisotropy =    40.1610
   XX=   186.7137   YX=    10.0846   ZX=    15.3209
   XY=    17.7095   YY=   155.8702   ZY=    -4.1788
   XZ=    14.8560   YZ=    -5.2804   ZZ=   172.4412
   Eigenvalues:   146.2966   170.2795   198.4490
     12  H    Isotropic =    30.0754   Anisotropy =     7.3461
   XX=    31.2371   YX=     0.6874   ZX=    -2.8740
   XY=     0.2882   YY=    26.9517   ZY=    -1.7988
   XZ=    -3.0231   YZ=    -1.8313   ZZ=    32.0372
   Eigenvalues:    26.3169    28.9364    34.9728
     13  H    Isotropic =    27.7388   Anisotropy =     5.1895
   XX=    25.8057   YX=    -0.4092   ZX=    -1.8799
   XY=    -0.4782   YY=    28.4632   ZY=    -1.4509
   XZ=    -1.8932   YZ=    -3.0038   ZZ=    28.9475
   Eigenvalues:    24.3961    27.6218    31.1985
     14  H    Isotropic =    30.1898   Anisotropy =    10.1299
   XX=    27.7792   YX=    -1.8894   ZX=    -0.1696
   XY=    -1.4950   YY=    26.0527   ZY=     1.4500
   XZ=    -0.9771   YZ=     1.0191   ZZ=    36.7373
   Eigenvalues:    24.9667    28.6596    36.9431
     15  H    Isotropic =    29.6115   Anisotropy =     7.8948
   XX=    31.4366   YX=     2.3890   ZX=     0.6020
   XY=     2.6206   YY=    31.1680   ZY=     3.1082
   XZ=     0.9138   YZ=     3.7761   ZZ=    26.2300
   Eigenvalues:    24.4275    29.5323    34.8747
     16  H    Isotropic =    29.8133   Anisotropy =     7.2603
   XX=    29.9458   YX=    -0.5575   ZX=     1.6774
   XY=    -0.1184   YY=    27.4858   ZY=    -3.0689
   XZ=     2.9141   YZ=    -3.2041   ZZ=    32.0083
   Eigenvalues:    25.7264    29.0600    34.6535
     17  H    Isotropic =    30.3301   Anisotropy =     9.1980
   XX=    30.7799   YX=    -3.3030   ZX=    -0.4417
   XY=    -3.3344   YY=    32.8786   ZY=     3.6761
   XZ=     0.1067   YZ=     3.8776   ZZ=    27.3318
   Eigenvalues:    25.0395    29.4887    36.4621
     18  H    Isotropic =    30.4110   Anisotropy =     5.1527
   XX=    31.8653   YX=    -0.1300   ZX=    -0.8657
   XY=     0.4925   YY=    29.3209   ZY=    -3.9770
   XZ=    -1.3666   YZ=    -3.3803   ZZ=    30.0467
   Eigenvalues:    25.9223    31.4646    33.8461
     19  H    Isotropic =    30.2650   Anisotropy =     7.1776
   XX=    31.5172   YX=     2.0943   ZX=     1.1126
   XY=     2.0770   YY=    33.4535   ZY=     0.8999
   XZ=     1.1407   YZ=     1.3690   ZZ=    25.8243
   Eigenvalues:    25.5356    30.2093    35.0501
     20  H    Isotropic =    30.1436   Anisotropy =     3.1418
   XX=    30.6606   YX=     0.7895   ZX=     0.1975
   XY=     0.1911   YY=    27.5895   ZY=     0.3760
   XZ=    -0.7733   YZ=     0.0977   ZZ=    32.1808
   Eigenvalues:    27.4965    30.6962    32.2382
     21  H    Isotropic =    30.5267   Anisotropy =    10.6586
   XX=    34.0215   YX=    -5.2107   ZX=    -0.7952
   XY=    -4.6124   YY=    30.5003   ZY=     2.1326
   XZ=    -0.0154   YZ=     1.1261   ZZ=    27.0584
   Eigenvalues:    25.8805    28.0671    37.6325
     22  H    Isotropic =    30.5912   Anisotropy =    10.6881
   XX=    35.2688   YX=     4.1968   ZX=     2.3854
   XY=     3.0964   YY=    29.8377   ZY=     0.2862
   XZ=     2.6561   YZ=     1.2980   ZZ=    26.6670
   Eigenvalues:    25.9681    28.0889    37.7165
     23  H    Isotropic =    30.8763   Anisotropy =     7.8901
   XX=    30.1609   YX=    -0.9771   ZX=     2.1822
   XY=    -0.6638   YY=    27.9664   ZY=    -2.7664
   XZ=     1.3407   YZ=    -2.7459   ZZ=    34.5016
   Eigenvalues:    26.9493    29.5433    36.1364
     24  H    Isotropic =    30.7417   Anisotropy =    17.9107
   XX=    30.2119   YX=     5.1480   ZX=     0.2139
   XY=     5.8425   YY=    39.4530   ZY=     3.5244
   XZ=     1.1568   YZ=     3.9266   ZZ=    22.5604
   Eigenvalues:    21.7439    27.7992    42.6822
     25  H    Isotropic =    28.8255   Anisotropy =     6.5803
   XX=    28.7442   YX=    -0.4344   ZX=    -2.3938
   XY=     0.1870   YY=    32.7627   ZY=     1.5542
   XZ=    -1.9382   YZ=     1.9092   ZZ=    24.9697
   Eigenvalues:    23.7235    29.5407    33.2124
     26  H    Isotropic =    30.7418   Anisotropy =     6.0264
   XX=    29.3940   YX=    -1.6309   ZX=    -1.1971
   XY=    -1.3732   YY=    33.7560   ZY=    -1.5903
   XZ=    -1.1654   YZ=    -2.6273   ZZ=    29.0754
   Eigenvalues:    27.0501    30.4159    34.7594
     27  H    Isotropic =    30.3707   Anisotropy =     7.2269
   XX=    32.5277   YX=     2.9870   ZX=     1.9713
   XY=     2.0029   YY=    26.1445   ZY=    -1.3892
   XZ=     3.0628   YZ=    -0.1907   ZZ=    32.4400
   Eigenvalues:    24.9331    30.9904    35.1887
     28  H    Isotropic =    30.6720   Anisotropy =    10.7269
   XX=    30.8019   YX=     0.4338   ZX=    -3.8858
   XY=     1.1368   YY=    26.3991   ZY=    -2.2284
   XZ=    -4.3849   YZ=    -1.9422   ZZ=    34.8150
   Eigenvalues:    25.9002    28.2926    37.8233
     29  H    Isotropic =    30.8464   Anisotropy =    10.6825
   XX=    33.5574   YX=    -1.7865   ZX=     5.1764
   XY=    -1.0891   YY=    28.0718   ZY=    -1.8712
   XZ=     4.4375   YZ=    -3.2775   ZZ=    30.9099
   Eigenvalues:    26.1503    28.4208    37.9681
     30  H    Isotropic =    30.6946   Anisotropy =    10.5633
   XX=    36.1053   YX=     1.9146   ZX=    -3.4907
   XY=     2.2849   YY=    26.6205   ZY=    -1.3713
   XZ=    -2.6061   YZ=    -0.2855   ZZ=    29.3580
   Eigenvalues:    26.1620    28.1849    37.7368
     31  H    Isotropic =    30.4788   Anisotropy =     7.0150
   XX=    31.0340   YX=     2.7224   ZX=     0.7080
   XY=     1.3626   YY=    32.3759   ZY=     3.1143
   XZ=     0.4750   YZ=     3.3563   ZZ=    28.0266
   Eigenvalues:    26.2576    30.0234    35.1555
 End of Minotr Frequency-dependent properties file   721 does not exist.
 End of Minotr Frequency-dependent properties file   722 does not exist.

 **********************************************************************

            Population analysis using the SCF density.

 **********************************************************************

 Orbital symmetries:
       Occupied  (A) (A) (A) (A) (A) (A) (A) (A) (A) (A) (A) (A)
                 (A) (A) (A) (A) (A) (A) (A) (A) (A) (A) (A) (A)
                 (A) (A) (A) (A) (A) (A) (A) (A) (A) (A) (A) (A)
                 (A) (A) (A) (A) (A) (A) (A) (A)
       Virtual   (A) (A) (A) (A) (A) (A) (A) (A) (A) (A) (A) (A)
                 (A) (A) (A) (A) (A) (A) (A) (A) (A) (A) (A) (A)
                 (A) (A) (A) (A) (A) (A) (A) (A) (A) (A) (A) (A)
                 (A) (A) (A) (A) (A) (A) (A) (A) (A) (A) (A) (A)
                 (A) (A) (A) (A) (A) (A) (A) (A) (A) (A) (A) (A)
                 (A) (A) (A) (A) (A) (A) (A) (A) (A) (A) (A) (A)
                 (A) (A) (A) (A) (A) (A) (A) (A) (A) (A) (A) (A)
                 (A) (A) (A) (A) (A) (A) (A) (A) (A) (A) (A) (A)
                 (A) (A) (A) (A) (A) (A) (A) (A) (A) (A) (A) (A)
                 (A) (A) (A) (A) (A) (A) (A) (A) (A) (A) (A) (A)
                 (A) (A) (A) (A) (A) (A) (A) (A) (A) (A) (A) (A)
                 (A) (A) (A) (A) (A) (A) (A) (A) (A) (A) (A) (A)
                 (A) (A) (A) (A) (A) (A) (A) (A) (A) (A) (A) (A)
                 (A) (A) (A) (A) (A) (A) (A) (A) (A) (A) (A) (A)
                 (A) (A) (A) (A) (A) (A) (A) (A) (A) (A) (A) (A)
                 (A) (A) (A) (A) (A) (A) (A) (A) (A) (A) (A) (A)
                 (A) (A) (A) (A) (A) (A) (A) (A) (A) (A) (A) (A)
                 (A) (A) (A) (A) (A) (A) (A) (A) (A) (A) (A) (A)
                 (A) (A) (A) (A) (A) (A) (A) (A) (A) (A) (A) (A)
                 (A) (A) (A) (A) (A) (A) (A) (A) (A) (A) (A) (A)
                 (A) (A) (A) (A) (A) (A) (A) (A) (A) (A) (A) (A)
                 (A) (A) (A) (A) (A) (A) (A) (A) (A) (A) (A) (A)
                 (A)
 The electronic state is 1-A.
 Alpha  occ. eigenvalues --  -19.24621 -10.29508 -10.25235 -10.24622 -10.24364
 Alpha  occ. eigenvalues --  -10.24166 -10.24076 -10.23840 -10.23505 -10.22858
 Alpha  occ. eigenvalues --  -10.22826  -1.05172  -0.85926  -0.81787  -0.76627
 Alpha  occ. eigenvalues --   -0.75365  -0.70357  -0.69288  -0.63460  -0.61703
 Alpha  occ. eigenvalues --   -0.58306  -0.54262  -0.52217  -0.49051  -0.47733
 Alpha  occ. eigenvalues --   -0.46446  -0.44642  -0.43602  -0.41840  -0.41247
 Alpha  occ. eigenvalues --   -0.40009  -0.39780  -0.39148  -0.38751  -0.37132
 Alpha  occ. eigenvalues --   -0.36924  -0.35484  -0.34105  -0.33382  -0.33238
 Alpha  occ. eigenvalues --   -0.31591  -0.30430  -0.30002  -0.28002
 Alpha virt. eigenvalues --    0.00504   0.01700   0.01918   0.02338   0.03774
 Alpha virt. eigenvalues --    0.04306   0.04653   0.04976   0.05646   0.06544
 Alpha virt. eigenvalues --    0.07216   0.07847   0.08464   0.08780   0.08954
 Alpha virt. eigenvalues --    0.09648   0.10089   0.10922   0.11489   0.11829
 Alpha virt. eigenvalues --    0.12311   0.12928   0.13631   0.14423   0.14516
 Alpha virt. eigenvalues --    0.15280   0.15871   0.16047   0.16536   0.16966
 Alpha virt. eigenvalues --    0.17710   0.18253   0.19256   0.19543   0.19853
 Alpha virt. eigenvalues --    0.20470   0.20723   0.21096   0.21581   0.22038
 Alpha virt. eigenvalues --    0.22535   0.23094   0.23305   0.24351   0.24964
 Alpha virt. eigenvalues --    0.25539   0.25853   0.26476   0.27105   0.27612
 Alpha virt. eigenvalues --    0.28074   0.28646   0.28801   0.29892   0.30115
 Alpha virt. eigenvalues --    0.30650   0.31347   0.32261   0.32814   0.33508
 Alpha virt. eigenvalues --    0.34574   0.35000   0.36165   0.36379   0.37505
 Alpha virt. eigenvalues --    0.38625   0.40144   0.40309   0.41260   0.41514
 Alpha virt. eigenvalues --    0.42920   0.45345   0.46890   0.49730   0.51399
 Alpha virt. eigenvalues --    0.62730   0.64554   0.66004   0.66128   0.67577
 Alpha virt. eigenvalues --    0.68790   0.69746   0.70134   0.71526   0.72986
 Alpha virt. eigenvalues --    0.74056   0.74241   0.74731   0.75212   0.77110
 Alpha virt. eigenvalues --    0.78432   0.79920   0.80803   0.83541   0.84130
 Alpha virt. eigenvalues --    0.85352   0.87890   0.88700   0.90549   0.90739
 Alpha virt. eigenvalues --    0.93722   0.96242   0.98218   0.99200   1.00437
 Alpha virt. eigenvalues --    1.00789   1.02339   1.02619   1.03343   1.04642
 Alpha virt. eigenvalues --    1.07036   1.07665   1.09225   1.09719   1.11421
 Alpha virt. eigenvalues --    1.13081   1.14135   1.15400   1.16276   1.17196
 Alpha virt. eigenvalues --    1.18409   1.18552   1.20035   1.20951   1.23473
 Alpha virt. eigenvalues --    1.24990   1.25768   1.27556   1.30264   1.33878
 Alpha virt. eigenvalues --    1.36467   1.38497   1.41897   1.42637   1.45971
 Alpha virt. eigenvalues --    1.48472   1.49580   1.52113   1.54998   1.58487
 Alpha virt. eigenvalues --    1.59075   1.59549   1.63677   1.65377   1.67043
 Alpha virt. eigenvalues --    1.68455   1.73180   1.76798   1.78559   1.80503
 Alpha virt. eigenvalues --    1.81946   1.83617   1.85500   1.87589   1.88857
 Alpha virt. eigenvalues --    1.89400   1.90537   1.92089   1.94083   1.95551
 Alpha virt. eigenvalues --    1.98019   1.98947   1.99641   2.01346   2.03939
 Alpha virt. eigenvalues --    2.04505   2.05987   2.06026   2.07449   2.08095
 Alpha virt. eigenvalues --    2.09381   2.10565   2.12567   2.13456   2.15032
 Alpha virt. eigenvalues --    2.16275   2.16463   2.18016   2.18455   2.19724
 Alpha virt. eigenvalues --    2.21607   2.23031   2.24042   2.26952   2.29935
 Alpha virt. eigenvalues --    2.32521   2.34116   2.35113   2.36924   2.37982
 Alpha virt. eigenvalues --    2.38817   2.40200   2.42085   2.44296   2.46559
 Alpha virt. eigenvalues --    2.48184   2.50325   2.51470   2.53916   2.55142
 Alpha virt. eigenvalues --    2.58396   2.60114   2.62010   2.64277   2.65465
 Alpha virt. eigenvalues --    2.66984   2.68357   2.68726   2.71941   2.72446
 Alpha virt. eigenvalues --    2.73588   2.74973   2.76761   2.77701   2.78802
 Alpha virt. eigenvalues --    2.79514   2.80831   2.83479   2.83941   2.86791
 Alpha virt. eigenvalues --    2.87920   2.88448   2.89627   2.91026   2.92082
 Alpha virt. eigenvalues --    2.93165   2.93721   2.96437   2.96989   2.98253
 Alpha virt. eigenvalues --    3.00096   3.03272   3.06978   3.16697   3.29301
 Alpha virt. eigenvalues --    3.29351   3.31436   3.35391   3.38569   3.39113
 Alpha virt. eigenvalues --    3.42134   3.42844   3.47079   3.49213   3.50212
 Alpha virt. eigenvalues --    3.52157   3.53756   3.54159   3.55676   3.56818
 Alpha virt. eigenvalues --    3.58758   3.60276   3.60623   3.63938   4.36083
 Alpha virt. eigenvalues --    4.42758   4.49936   4.51795   4.57074   4.61066
 Alpha virt. eigenvalues --    4.61938   4.76356   4.84380   4.87816   4.92470
          Condensed to atoms (all electrons):
              1          2          3          4          5          6
     1  C    6.865434   0.146065   0.022688   0.151918  -0.222271  -0.450455
     2  C    0.146065   7.244442   0.362471  -0.849935  -0.007262  -0.665006
     3  C    0.022688   0.362471   5.853328  -0.310101   0.184718  -0.019095
     4  C    0.151918  -0.849935  -0.310101   7.564843  -0.448242  -0.406145
     5  C   -0.222271  -0.007262   0.184718  -0.448242   6.178390  -0.199353
     6  C   -0.450455  -0.665006  -0.019095  -0.406145  -0.199353   6.977575
     7  C   -0.466388  -0.269375  -0.113669   0.069270   0.099596   0.206346
     8  O   -0.002257   0.289665   0.055783  -0.225015  -0.005634  -0.021888
     9  C   -0.035222  -0.026642  -0.160207  -0.164693   0.056308   0.110980
    10  C    0.055151   0.038513  -0.011126   0.007914  -0.121898  -0.057051
    11  C   -0.025430  -0.105739   0.025878   0.071205   0.054605   0.032951
    12  H    0.249078  -0.063397  -0.040798   0.041734   0.008214   0.017415
    13  H    0.025636   0.178646  -0.034486   0.071536  -0.009103   0.060166
    14  H   -0.001984  -0.074745   0.355823   0.031239  -0.020629   0.013779
    15  H    0.033913   0.030477   0.413731  -0.064659  -0.071091  -0.020088
    16  H   -0.014567  -0.039057  -0.003218   0.275302   0.046678   0.044886
    17  H   -0.017698   0.015202  -0.001023   0.034599   0.285518   0.032977
    18  H   -0.105419  -0.057374  -0.088781   0.069968   0.457711   0.026883
    19  H   -0.013208   0.035867   0.000898   0.037094   0.031407   0.268228
    20  H   -0.080325  -0.183855  -0.022689   0.086826   0.004419   0.486027
    21  H   -0.102421  -0.004259  -0.000450   0.002400   0.002423   0.024902
    22  H   -0.099900   0.000159  -0.006507   0.002232   0.027649  -0.001667
    23  H   -0.130836  -0.001148  -0.002562   0.003893   0.004245   0.006875
    24  H    0.019791   0.075729  -0.010546   0.064725  -0.000490  -0.116394
    25  H    0.001709  -0.018348   0.011226  -0.063725  -0.017992   0.009336
    26  H    0.006490  -0.008251   0.019456  -0.015723  -0.031021   0.005061
    27  H    0.007089   0.039013  -0.026629   0.002538   0.012258  -0.037244
    28  H   -0.001554   0.000564  -0.000768   0.022316   0.000496   0.001354
    29  H   -0.000006  -0.007005   0.019635  -0.001563   0.002798   0.002144
    30  H   -0.000431  -0.008605   0.001810   0.034093   0.000543   0.001416
    31  H    0.001250  -0.000459  -0.006822   0.001043  -0.010901   0.001265
              7          8          9         10         11         12
     1  C   -0.466388  -0.002257  -0.035222   0.055151  -0.025430   0.249078
     2  C   -0.269375   0.289665  -0.026642   0.038513  -0.105739  -0.063397
     3  C   -0.113669   0.055783  -0.160207  -0.011126   0.025878  -0.040798
     4  C    0.069270  -0.225015  -0.164693   0.007914   0.071205   0.041734
     5  C    0.099596  -0.005634   0.056308  -0.121898   0.054605   0.008214
     6  C    0.206346  -0.021888   0.110980  -0.057051   0.032951   0.017415
     7  C    5.747367  -0.002521   0.014982  -0.009238   0.006096   0.057831
     8  O   -0.002521   8.298387  -0.015691  -0.015939   0.007835  -0.000548
     9  C    0.014982  -0.015691   6.384476   0.042443  -0.158342  -0.001657
    10  C   -0.009238  -0.015939   0.042443   5.483752  -0.103497  -0.002076
    11  C    0.006096   0.007835  -0.158342  -0.103497   5.538511   0.000485
    12  H    0.057831  -0.000548  -0.001657  -0.002076   0.000485   0.573497
    13  H    0.021194  -0.049765  -0.012531  -0.002184   0.002285   0.003237
    14  H    0.012062  -0.000345   0.001330  -0.005259   0.008590   0.002845
    15  H   -0.003471  -0.000469   0.025079  -0.004579  -0.014613  -0.000047
    16  H    0.001241   0.000708  -0.024972  -0.002569   0.000655  -0.000091
    17  H   -0.024271   0.000075  -0.001997   0.006269  -0.002266  -0.005123
    18  H    0.022314  -0.000329  -0.005608  -0.012823   0.005160   0.005241
    19  H   -0.019259  -0.011598  -0.009752   0.002187  -0.000029  -0.004608
    20  H    0.027189   0.000533   0.011367  -0.022616   0.004406   0.004840
    21  H    0.436300   0.000029  -0.000012   0.000285  -0.000081  -0.003827
    22  H    0.436369  -0.000005   0.000561  -0.000304   0.000043  -0.003607
    23  H    0.469331  -0.000085  -0.000828   0.000541  -0.000006   0.004815
    24  H   -0.000771   0.205625  -0.009895   0.003702  -0.002297  -0.000009
    25  H   -0.000502  -0.000529   0.375746   0.006272  -0.022741  -0.000001
    26  H    0.000089   0.000108  -0.068003   0.447710  -0.008297  -0.000003
    27  H   -0.002470  -0.000072  -0.064078   0.428880  -0.002842  -0.000012
    28  H   -0.000102   0.000388  -0.114917   0.445852   0.004476   0.000000
    29  H    0.000074  -0.000061  -0.108085  -0.001519   0.452533   0.000000
    30  H    0.000029   0.000152  -0.126583   0.002808   0.453286   0.000000
    31  H    0.000031  -0.000001  -0.070117   0.002956   0.431253   0.000000
             13         14         15         16         17         18
     1  C    0.025636  -0.001984   0.033913  -0.014567  -0.017698  -0.105419
     2  C    0.178646  -0.074745   0.030477  -0.039057   0.015202  -0.057374
     3  C   -0.034486   0.355823   0.413731  -0.003218  -0.001023  -0.088781
     4  C    0.071536   0.031239  -0.064659   0.275302   0.034599   0.069968
     5  C   -0.009103  -0.020629  -0.071091   0.046678   0.285518   0.457711
     6  C    0.060166   0.013779  -0.020088   0.044886   0.032977   0.026883
     7  C    0.021194   0.012062  -0.003471   0.001241  -0.024271   0.022314
     8  O   -0.049765  -0.000345  -0.000469   0.000708   0.000075  -0.000329
     9  C   -0.012531   0.001330   0.025079  -0.024972  -0.001997  -0.005608
    10  C   -0.002184  -0.005259  -0.004579  -0.002569   0.006269  -0.012823
    11  C    0.002285   0.008590  -0.014613   0.000655  -0.002266   0.005160
    12  H    0.003237   0.002845  -0.000047  -0.000091  -0.005123   0.005241
    13  H    0.619440   0.002684  -0.000140  -0.011248  -0.000053   0.000094
    14  H    0.002684   0.548665  -0.028589  -0.007676  -0.005541   0.004597
    15  H   -0.000140  -0.028589   0.550929  -0.001388  -0.001942  -0.004139
    16  H   -0.011248  -0.007676  -0.001388   0.579865  -0.000131  -0.000152
    17  H   -0.000053  -0.005541  -0.001942  -0.000131   0.557611  -0.030280
    18  H    0.000094   0.004597  -0.004139  -0.000152  -0.030280   0.549151
    19  H   -0.007934  -0.000034   0.000010  -0.000149  -0.000136  -0.000035
    20  H    0.005031   0.000067  -0.000029  -0.000146  -0.000030   0.002384
    21  H    0.000006   0.000001  -0.000002   0.000000   0.002727  -0.000236
    22  H   -0.000004   0.000002   0.000002   0.000000   0.000009   0.000007
    23  H   -0.000003   0.000000   0.000000   0.000000  -0.000157   0.003433
    24  H   -0.006248   0.000001   0.000005  -0.000202   0.000000   0.000001
    25  H    0.000065  -0.000120   0.000097  -0.002144   0.000004  -0.000033
    26  H   -0.000002  -0.000023   0.000394  -0.000020   0.000154   0.000315
    27  H   -0.000057  -0.000021   0.000204  -0.000059   0.000031  -0.001042
    28  H    0.000003   0.000003  -0.000037  -0.000105  -0.000003   0.000190
    29  H    0.000001  -0.000012   0.000039   0.004038   0.000000  -0.000002
    30  H    0.000002   0.000002  -0.000100   0.000283   0.000000  -0.000002
    31  H   -0.000002  -0.000124   0.001705  -0.000538   0.000005  -0.000002
             19         20         21         22         23         24
     1  C   -0.013208  -0.080325  -0.102421  -0.099900  -0.130836   0.019791
     2  C    0.035867  -0.183855  -0.004259   0.000159  -0.001148   0.075729
     3  C    0.000898  -0.022689  -0.000450  -0.006507  -0.002562  -0.010546
     4  C    0.037094   0.086826   0.002400   0.002232   0.003893   0.064725
     5  C    0.031407   0.004419   0.002423   0.027649   0.004245  -0.000490
     6  C    0.268228   0.486027   0.024902  -0.001667   0.006875  -0.116394
     7  C   -0.019259   0.027189   0.436300   0.436369   0.469331  -0.000771
     8  O   -0.011598   0.000533   0.000029  -0.000005  -0.000085   0.205625
     9  C   -0.009752   0.011367  -0.000012   0.000561  -0.000828  -0.009895
    10  C    0.002187  -0.022616   0.000285  -0.000304   0.000541   0.003702
    11  C   -0.000029   0.004406  -0.000081   0.000043  -0.000006  -0.002297
    12  H   -0.004608   0.004840  -0.003827  -0.003607   0.004815  -0.000009
    13  H   -0.007934   0.005031   0.000006  -0.000004  -0.000003  -0.006248
    14  H   -0.000034   0.000067   0.000001   0.000002   0.000000   0.000001
    15  H    0.000010  -0.000029  -0.000002   0.000002   0.000000   0.000005
    16  H   -0.000149  -0.000146   0.000000   0.000000   0.000000  -0.000202
    17  H   -0.000136  -0.000030   0.002727   0.000009  -0.000157   0.000000
    18  H   -0.000035   0.002384  -0.000236   0.000007   0.003433   0.000001
    19  H    0.566974  -0.032511   0.000004   0.002783  -0.000156   0.005654
    20  H   -0.032511   0.539039  -0.000011  -0.000201   0.002888  -0.000904
    21  H    0.000004  -0.000011   0.531936  -0.025459  -0.027834   0.000000
    22  H    0.002783  -0.000201  -0.025459   0.533755  -0.027915   0.000001
    23  H   -0.000156   0.002888  -0.027834  -0.027915   0.532242   0.000000
    24  H    0.005654  -0.000904   0.000000   0.000001   0.000000   0.411951
    25  H   -0.000018   0.000172   0.000000   0.000000   0.000000  -0.000053
    26  H   -0.000002  -0.000026   0.000000   0.000000  -0.000007   0.000001
    27  H    0.000137   0.001758   0.000000   0.000002  -0.000001  -0.000002
    28  H   -0.000001   0.000128   0.000000   0.000000   0.000000   0.000000
    29  H    0.000000  -0.000001   0.000000   0.000000   0.000000   0.000000
    30  H    0.000000   0.000000   0.000000   0.000000   0.000000   0.000000
    31  H    0.000000   0.000001   0.000000   0.000000   0.000000   0.000000
             25         26         27         28         29         30
     1  C    0.001709   0.006490   0.007089  -0.001554  -0.000006  -0.000431
     2  C   -0.018348  -0.008251   0.039013   0.000564  -0.007005  -0.008605
     3  C    0.011226   0.019456  -0.026629  -0.000768   0.019635   0.001810
     4  C   -0.063725  -0.015723   0.002538   0.022316  -0.001563   0.034093
     5  C   -0.017992  -0.031021   0.012258   0.000496   0.002798   0.000543
     6  C    0.009336   0.005061  -0.037244   0.001354   0.002144   0.001416
     7  C   -0.000502   0.000089  -0.002470  -0.000102   0.000074   0.000029
     8  O   -0.000529   0.000108  -0.000072   0.000388  -0.000061   0.000152
     9  C    0.375746  -0.068003  -0.064078  -0.114917  -0.108085  -0.126583
    10  C    0.006272   0.447710   0.428880   0.445852  -0.001519   0.002808
    11  C   -0.022741  -0.008297  -0.002842   0.004476   0.452533   0.453286
    12  H   -0.000001  -0.000003  -0.000012   0.000000   0.000000   0.000000
    13  H    0.000065  -0.000002  -0.000057   0.000003   0.000001   0.000002
    14  H   -0.000120  -0.000023  -0.000021   0.000003  -0.000012   0.000002
    15  H    0.000097   0.000394   0.000204  -0.000037   0.000039  -0.000100
    16  H   -0.002144  -0.000020  -0.000059  -0.000105   0.004038   0.000283
    17  H    0.000004   0.000154   0.000031  -0.000003   0.000000   0.000000
    18  H   -0.000033   0.000315  -0.001042   0.000190  -0.000002  -0.000002
    19  H   -0.000018  -0.000002   0.000137  -0.000001   0.000000   0.000000
    20  H    0.000172  -0.000026   0.001758   0.000128  -0.000001   0.000000
    21  H    0.000000   0.000000   0.000000   0.000000   0.000000   0.000000
    22  H    0.000000   0.000000   0.000002   0.000000   0.000000   0.000000
    23  H    0.000000  -0.000007  -0.000001   0.000000   0.000000   0.000000
    24  H   -0.000053   0.000001  -0.000002   0.000000   0.000000   0.000000
    25  H    0.542208   0.004759  -0.003354  -0.004222  -0.004033  -0.003609
    26  H    0.004759   0.542489  -0.029560  -0.029447   0.000009  -0.000301
    27  H   -0.003354  -0.029560   0.548283  -0.026153  -0.000140   0.000063
    28  H   -0.004222  -0.029447  -0.026153   0.536507   0.000096   0.002814
    29  H   -0.004033   0.000009  -0.000140   0.000096   0.533237  -0.024567
    30  H   -0.003609  -0.000301   0.000063   0.002814  -0.024567   0.534491
    31  H    0.004755   0.003263  -0.000015  -0.000169  -0.029354  -0.029021
             31
     1  C    0.001250
     2  C   -0.000459
     3  C   -0.006822
     4  C    0.001043
     5  C   -0.010901
     6  C    0.001265
     7  C    0.000031
     8  O   -0.000001
     9  C   -0.070117
    10  C    0.002956
    11  C    0.431253
    12  H    0.000000
    13  H   -0.000002
    14  H   -0.000124
    15  H    0.001705
    16  H   -0.000538
    17  H    0.000005
    18  H   -0.000002
    19  H    0.000000
    20  H    0.000001
    21  H    0.000000
    22  H    0.000000
    23  H    0.000000
    24  H    0.000000
    25  H    0.004755
    26  H    0.003263
    27  H   -0.000015
    28  H   -0.000169
    29  H   -0.029354
    30  H   -0.029021
    31  H    0.542317
 Mulliken atomic charges:
              1
     1  C    0.184156
     2  C   -0.066349
     3  C   -0.467966
     4  C   -0.096888
     5  C   -0.292091
     6  C   -0.336176
     7  C   -0.715675
     8  O   -0.506533
     9  C    0.156561
    10  C   -0.602559
    11  C   -0.654074
    12  H    0.156571
    13  H    0.143736
    14  H    0.163412
    15  H    0.158799
    16  H    0.154777
    17  H    0.155468
    18  H    0.158807
    19  H    0.148189
    20  H    0.166267
    21  H    0.163579
    22  H    0.161995
    23  H    0.163273
    24  H    0.360625
    25  H    0.185073
    26  H    0.160388
    27  H    0.153494
    28  H    0.162291
    29  H    0.161743
    30  H    0.161426
    31  H    0.157680
 Sum of Mulliken atomic charges =   0.00000
 Mulliken charges with hydrogens summed into heavy atoms:
              1
     1  C    0.340726
     2  C    0.077388
     3  C   -0.145755
     4  C    0.057889
     5  C    0.022184
     6  C   -0.021720
     7  C   -0.226828
     8  O   -0.145909
     9  C    0.341634
    10  C   -0.126385
    11  C   -0.173225
 Sum of Mulliken charges with hydrogens summed into heavy atoms =   0.00000
 Electronic spatial extent (au):  <R**2>=           2041.3328
 Charge=              0.0000 electrons
 Dipole moment (field-independent basis, Debye):
    X=              1.8010    Y=              0.0044    Z=             -0.4119  Tot=              1.8475
 Quadrupole moment (field-independent basis, Debye-Ang):
   XX=            -73.3180   YY=            -70.0787   ZZ=            -71.9561
   XY=              4.5260   XZ=             -0.4556   YZ=              0.2268
 Traceless Quadrupole moment (field-independent basis, Debye-Ang):
   XX=             -1.5337   YY=              1.7055   ZZ=             -0.1718
   XY=              4.5260   XZ=             -0.4556   YZ=              0.2268
 Octapole moment (field-independent basis, Debye-Ang**2):
  XXX=              0.2648  YYY=             26.7170  ZZZ=             -1.7410  XYY=             14.1898
  XXY=              2.9359  XXZ=             -0.2201  XZZ=             -0.9258  YZZ=              4.0127
  YYZ=              0.5846  XYZ=              1.3300
 Hexadecapole moment (field-independent basis, Debye-Ang**3):
 XXXX=          -1719.6616 YYYY=           -618.7000 ZZZZ=           -422.3268 XXXY=             -6.1329
 XXXZ=            -17.7945 YYYX=             30.9869 YYYZ=             16.9493 ZZZX=             -3.0374
 ZZZY=             -0.9609 XXYY=           -407.8358 XXZZ=           -351.3650 YYZZ=           -190.3635
 XXYZ=              1.4350 YYXZ=             -0.8785 ZZXY=             -3.4186
 N-N= 6.959243149120D+02 E-N=-2.477276056012D+03  KE= 4.636941311657D+02
 1\1\GINC-COMPUTE-10-6\SP\RmPW1PW91\6-31+G(d,p)\C10H20O1\ASAROTTI.IQUIR
 \19-Sep-2024\0\\# mPW1PW91/6-31+G** nmr scrf=(pcm,solvent=benzene)\\co
 mment\\0,1\C,0,2.12013,-0.194319,-0.240902\C,0,0.122595,1.361433,-0.47
 4809\C,0,-0.077511,-1.025386,-1.260753\C,0,-0.867257,0.203025,-0.74116
 2\C,0,1.17575,-1.391726,-0.445625\C,0,1.341494,0.981548,0.37516\C,0,3.
 347556,-0.57064,0.596044\O,0,-0.607086,2.450525,0.093452\C,0,-1.906639
 ,-0.070229,0.390179\C,0,-1.435319,-0.895605,1.600329\C,0,-3.170429,-0.
 719984,-0.202941\H,0,2.473329,0.126799,-1.234682\H,0,0.508729,1.664294
 ,-1.465614\H,0,0.24081,-0.812424,-2.291709\H,0,-0.743964,-1.893993,-1.
 32968\H,0,-1.480759,0.556952,-1.581507\H,0,1.714124,-2.200053,-0.95923
 3\H,0,0.893108,-1.788398,0.536907\H,0,2.001908,1.858828,0.461247\H,0,1
 .023111,0.732427,1.395156\H,0,3.910165,-1.387554,0.128334\H,0,4.027993
 ,0.281484,0.713316\H,0,3.052593,-0.902296,1.599915\H,0,0.01981,3.17677
 8,0.235239\H,0,-2.196356,0.917933,0.764386\H,0,-1.190497,-1.928049,1.3
 22417\H,0,-0.561542,-0.462612,2.095806\H,0,-2.238381,-0.946646,2.34597
 9\H,0,-3.601896,-0.102128,-0.99928\H,0,-3.938172,-0.853467,0.568669\H,
 0,-2.959655,-1.710782,-0.626392\\Version=AM64L-G09RevC.01\State=1-A\HF
 =-468.2770715\RMSD=8.707e-09\Dipole=0.7085532,0.0017224,-0.1620646\Qua
 drupole=-1.1402845,1.2680292,-0.1277447,3.3649438,-0.3387316,0.1686275
 \PG=C01 [X(C10H20O1)]\\@


 WE ARE REACHING THE STAGE WHERE THE PROBLEMS WE MUST SOLVE ARE 
 GOING TO BECOME INSOLUBLE WITHOUT COMPUTERS.
 I DO NOT FEAR COMPUTERS.  I FEAR THE LACK OF THEM.

                                   -- ISSAC ASIMOV
 Job cpu time:  0 days  0 hours 13 minutes 46.8 seconds.
 File lengths (MBytes):  RWF=    120 Int=      0 D2E=      0 Chk=      7 Scr=      1
 Normal termination of Gaussian 09 at Thu Sep 19 10:47:28 2024.
