 Entering Gaussian System, Link 0=g09
 Input=/home/asarotti.iquir/SCF2/04_Mentol05_OptB_NMR_benzene.gjc
 Output=/home/asarotti.iquir/SCF2/04_Mentol05_OptB_NMR_benzene.log
 Initial command:
 /opt/ohpc/pub/apps/software/Gaussian/09/AMD64.SSE4a-enabled/g09/l1.exe /local/asarotti.iquir/Gau-1841349.inp -scrdir=/local/asarotti.iquir/
 Entering Link 1 = /opt/ohpc/pub/apps/software/Gaussian/09/AMD64.SSE4a-enabled/g09/l1.exe PID=   1841350.
  
 Copyright (c) 1988,1990,1992,1993,1995,1998,2003,2009,2011,
            Gaussian, Inc.  All Rights Reserved.
  
 This is part of the Gaussian(R) 09 program.  It is based on
 the Gaussian(R) 03 system (copyright 2003, Gaussian, Inc.),
 the Gaussian(R) 98 system (copyright 1998, Gaussian, Inc.),
 the Gaussian(R) 94 system (copyright 1995, Gaussian, Inc.),
 the Gaussian 92(TM) system (copyright 1992, Gaussian, Inc.),
 the Gaussian 90(TM) system (copyright 1990, Gaussian, Inc.),
 the Gaussian 88(TM) system (copyright 1988, Gaussian, Inc.),
 the Gaussian 86(TM) system (copyright 1986, Carnegie Mellon
 University), and the Gaussian 82(TM) system (copyright 1983,
 Carnegie Mellon University). Gaussian is a federally registered
 trademark of Gaussian, Inc.
  
 This software contains proprietary and confidential information,
 including trade secrets, belonging to Gaussian, Inc.
  
 This software is provided under written license and may be
 used, copied, transmitted, or stored only in accord with that
 written license.
  
 The following legend is applicable only to US Government
 contracts under FAR:
  
                    RESTRICTED RIGHTS LEGEND
  
 Use, reproduction and disclosure by the US Government is
 subject to restrictions as set forth in subparagraphs (a)
 and (c) of the Commercial Computer Software - Restricted
 Rights clause in FAR 52.227-19.
  
 Gaussian, Inc.
 340 Quinnipiac St., Bldg. 40, Wallingford CT 06492
  
  
 ---------------------------------------------------------------
 Warning -- This program may not be used in any manner that
 competes with the business of Gaussian, Inc. or will provide
 assistance to any competitor of Gaussian, Inc.  The licensee
 of this program is prohibited from giving any competitor of
 Gaussian, Inc. access to this program.  By using this program,
 the user acknowledges that Gaussian, Inc. is engaged in the
 business of creating and licensing software in the field of
 computational chemistry and represents and warrants to the
 licensee that it is not a competitor of Gaussian, Inc. and that
 it will not use this program in any manner prohibited above.
 ---------------------------------------------------------------
  

 Cite this work as:
 Gaussian 09, Revision C.01,
 M. J. Frisch, G. W. Trucks, H. B. Schlegel, G. E. Scuseria, 
 M. A. Robb, J. R. Cheeseman, G. Scalmani, V. Barone, B. Mennucci, 
 G. A. Petersson, H. Nakatsuji, M. Caricato, X. Li, H. P. Hratchian, 
 A. F. Izmaylov, J. Bloino, G. Zheng, J. L. Sonnenberg, M. Hada, 
 M. Ehara, K. Toyota, R. Fukuda, J. Hasegawa, M. Ishida, T. Nakajima, 
 Y. Honda, O. Kitao, H. Nakai, T. Vreven, J. A. Montgomery, Jr., 
 J. E. Peralta, F. Ogliaro, M. Bearpark, J. J. Heyd, E. Brothers, 
 K. N. Kudin, V. N. Staroverov, T. Keith, R. Kobayashi, J. Normand, 
 K. Raghavachari, A. Rendell, J. C. Burant, S. S. Iyengar, J. Tomasi, 
 M. Cossi, N. Rega, J. M. Millam, M. Klene, J. E. Knox, J. B. Cross, 
 V. Bakken, C. Adamo, J. Jaramillo, R. Gomperts, R. E. Stratmann, 
 O. Yazyev, A. J. Austin, R. Cammi, C. Pomelli, J. W. Ochterski, 
 R. L. Martin, K. Morokuma, V. G. Zakrzewski, G. A. Voth, 
 P. Salvador, J. J. Dannenberg, S. Dapprich, A. D. Daniels, 
 O. Farkas, J. B. Foresman, J. V. Ortiz, J. Cioslowski, 
 and D. J. Fox, Gaussian, Inc., Wallingford CT, 2010.
 
 ******************************************
 Gaussian 09:  AM64L-G09RevC.01 23-Sep-2011
                19-Sep-2024 
 ******************************************
 %nprocshared=4
 Will use up to    4 processors via shared memory.
 %mem=100mw
 --------------------------------------------------
 # mPW1PW91/6-31+G** nmr scrf=(pcm,solvent=benzene)
 --------------------------------------------------
 1/38=1/1;
 2/12=2,17=6,18=5,40=1/2;
 3/5=1,6=6,7=111,11=2,16=1,25=1,30=1,70=2201,72=12,74=-7/1,2,8,3;
 4//1;
 5/5=2,38=5,53=12/2;
 8/6=1,10=90,11=11/1;
 10/13=100,45=16/2;
 6/7=2,8=2,9=2,10=2,28=1/1;
 99/9=1/99;
 -------
 comment
 -------
 Charge =  0 Multiplicity = 1
 Symbolic Z-Matrix:
 6                    -2.17297  -0.05811   0.07212 
 6                    -0.04973   1.27392   0.58467 
 6                    -0.18053  -1.09763   1.27203 
 6                     0.79665  -0.00953   0.76132 
 6                    -1.36383  -1.34311   0.32232 
 6                    -1.2323    1.07486  -0.37571 
 6                    -3.31224  -0.27859  -0.92932 
 8                     0.77972   2.36016   0.16811 
 6                     1.64034  -0.42343  -0.487 
 6                     2.05582  -1.90625  -0.46874 
 6                     2.91036   0.43784  -0.62371 
 1                    -2.61975   0.24181   1.03391 
 1                    -0.46596   1.50736   1.5813 
 1                    -0.57602  -0.77553   2.24646 
 1                     0.35551  -2.03242   1.4622 
 1                     1.51364   0.19073   1.57119 
 1                    -2.02092  -2.11903   0.73748 
 1                    -0.99934  -1.73021  -0.64032 
 1                    -1.79771   2.01722  -0.44643 
 1                    -0.84924   0.86919  -1.38447 
 1                    -3.99612  -1.06451  -0.58681 
 1                    -3.89941   0.63633  -1.07495 
 1                    -2.92019  -0.58193  -1.90867 
 1                     0.20563   3.13445   0.05892 
 1                     1.03375  -0.26724  -1.38989 
 1                     2.61315  -2.15139   0.44508 
 1                     1.20508  -2.59183  -0.53648 
 1                     2.71509  -2.11916  -1.31852 
 1                     3.57233   0.28151   0.23905 
 1                     2.67233   1.50011  -0.67895 
 1                     3.47098   0.15349  -1.52301 
 
                          Input orientation:                          
 ---------------------------------------------------------------------
 Center     Atomic      Atomic             Coordinates (Angstroms)
 Number     Number       Type             X           Y           Z
 ---------------------------------------------------------------------
      1          6           0       -2.172968   -0.058109    0.072121
      2          6           0       -0.049733    1.273921    0.584666
      3          6           0       -0.180534   -1.097634    1.272034
      4          6           0        0.796647   -0.009533    0.761318
      5          6           0       -1.363829   -1.343106    0.322324
      6          6           0       -1.232301    1.074857   -0.375705
      7          6           0       -3.312235   -0.278591   -0.929323
      8          8           0        0.779721    2.360156    0.168114
      9          6           0        1.640341   -0.423429   -0.486998
     10          6           0        2.055819   -1.906249   -0.468735
     11          6           0        2.910364    0.437837   -0.623707
     12          1           0       -2.619749    0.241812    1.033907
     13          1           0       -0.465963    1.507358    1.581304
     14          1           0       -0.576021   -0.775527    2.246463
     15          1           0        0.355509   -2.032421    1.462195
     16          1           0        1.513638    0.190733    1.571191
     17          1           0       -2.020924   -2.119033    0.737481
     18          1           0       -0.999344   -1.730207   -0.640322
     19          1           0       -1.797710    2.017218   -0.446425
     20          1           0       -0.849240    0.869189   -1.384465
     21          1           0       -3.996120   -1.064507   -0.586806
     22          1           0       -3.899412    0.636333   -1.074950
     23          1           0       -2.920190   -0.581926   -1.908671
     24          1           0        0.205631    3.134449    0.058924
     25          1           0        1.033748   -0.267244   -1.389887
     26          1           0        2.613151   -2.151395    0.445084
     27          1           0        1.205078   -2.591829   -0.536482
     28          1           0        2.715091   -2.119155   -1.318516
     29          1           0        3.572327    0.281511    0.239054
     30          1           0        2.672326    1.500111   -0.678952
     31          1           0        3.470981    0.153485   -1.523009
 ---------------------------------------------------------------------
                    Distance matrix (angstroms):
                    1          2          3          4          5
     1  C    0.000000
     2  C    2.558346   0.000000
     3  C    2.547586   2.472621   0.000000
     4  C    3.048929   1.547520   1.549089   0.000000
     5  C    1.539001   2.940153   1.537008   2.576585   0.000000
     6  C    1.539160   1.536361   2.922495   2.566194   2.520137
     7  C    1.532786   3.917445   3.914633   4.451244   2.548744
     8  O    3.817799   1.428781   3.754603   2.442868   4.281675
     9  C    3.871356   2.624083   2.619987   1.562505   3.244356
    10  C    4.646589   3.956828   2.947102   2.587678   3.554841
    11  C    5.154649   3.304751   3.937659   2.566366   4.726040
    12  H    1.102088   2.805717   2.792954   3.436458   2.143747
    13  H    2.764450   1.105001   2.638769   2.137176   3.242891
    14  H    2.791539   2.690499   1.099852   2.162549   2.155249
    15  H    3.496199   3.444732   1.094226   2.185842   2.174991
    16  H    3.987505   2.142582   2.149326   1.100035   3.491726
    17  H    2.170997   3.926969   2.171644   3.519839   1.098268
    18  H    2.163534   3.380406   2.174328   2.854978   1.099720
    19  H    2.171794   2.161264   3.907770   3.506715   3.474335
    20  H    2.175725   2.163445   3.372321   2.843498   2.841158
    21  H    2.184240   4.734402   4.244418   5.089305   2.798766
    22  H    2.186008   4.240386   4.727053   5.083502   3.507098
    23  H    2.180886   4.230889   4.229486   4.612088   2.824711
    24  H    3.981248   1.950174   4.419421   3.275253   4.751956
    25  H    3.530472   2.729099   3.041357   2.179522   3.136482
    26  H    5.237164   4.340878   3.098215   2.826175   4.060144
    27  H    4.266302   4.216106   2.724568   2.918793   2.982640
    28  H    5.484059   4.772768   4.017350   3.529397   4.464549
    29  H    5.757745   3.771425   4.129534   2.839342   5.197302
    30  H    5.144807   3.009568   4.323591   2.805633   5.037557
    31  H    5.868848   4.253598   4.765619   3.520907   5.387061
                    6          7          8          9         10
     6  C    0.000000
     7  C    2.542526   0.000000
     8  O    2.448666   4.991138   0.000000
     9  C    3.241808   4.974398   2.986333   0.000000
    10  C    4.439300   5.628269   4.498468   1.540036   0.000000
    11  C    4.198687   6.271157   2.976899   1.540593   2.499801
    12  H    2.146155   2.145840   4.097972   4.572096   5.360320
    13  H    2.145744   4.194535   2.067873   3.527368   4.713253
    14  H    3.275727   4.221307   3.998760   3.536671   3.946823
    15  H    3.943881   4.716739   4.598841   2.835313   2.575939
    16  H    3.480267   5.455445   2.685825   2.151602   2.975331
    17  H    3.473045   2.798740   5.313278   4.216549   4.256767
    18  H    2.827132   2.745938   4.533179   2.949426   3.065037
    19  H    1.101242   2.792439   2.671781   4.216468   5.499434
    20  H    1.098468   2.755158   2.699444   2.945220   4.120799
    21  H    3.501448   1.096668   5.925106   5.673679   6.111337
    22  H    2.791904   1.096845   5.139169   5.670771   6.503614
    23  H    2.818490   1.097649   5.163160   4.779615   5.346767
    24  H    2.549210   5.000086   0.970068   3.874909   5.395392
    25  H    2.822194   4.370334   3.065147   1.098889   2.139974
    26  H    5.086246   6.364479   4.877732   2.191119   1.098080
    27  H    4.405820   5.090335   5.019914   2.212207   1.094701
    28  H    5.164543   6.314096   5.100976   2.173016   1.096402
    29  H    4.908337   7.005427   3.482017   2.180977   2.754461
    30  H    3.939405   6.248315   2.244806   2.191311   3.468077
    31  H    4.928092   6.822842   3.869389   2.181145   2.712320
                   11         12         13         14         15
    11  C    0.000000
    12  H    5.776527   0.000000
    13  H    4.171994   2.557351   0.000000
    14  H    4.676003   2.584975   2.380360   0.000000
    15  H    4.120734   3.769314   3.635800   1.750031   0.000000
    16  H    2.613328   4.168473   2.377483   2.399234   2.509095
    17  H    5.719092   2.453579   4.034929   2.483904   2.485990
    18  H    4.470627   3.052477   3.962568   3.069877   2.519432
    19  H    4.969088   2.453405   2.478950   4.067382   4.967772
    20  H    3.859979   3.062161   3.057768   3.995420   4.239603
    21  H    7.068092   2.495511   4.876187   4.450618   4.906316
    22  H    6.827596   2.498092   4.427521   4.906125   5.627051
    23  H    6.056931   3.070436   4.750607   4.774699   4.919032
    24  H    3.879856   4.159413   2.327253   4.547991   5.356135
    25  H    2.146126   4.413837   3.771780   4.009083   3.422021
    26  H    2.816873   5.784237   4.915121   3.912646   2.479035
    27  H    3.477713   5.012479   4.907212   3.770418   2.242636
    28  H    2.656897   6.290356   5.628468   5.034464   3.647945
    29  H    1.098631   6.243010   4.428558   4.728193   4.147080
    30  H    1.090018   5.702917   3.867514   4.928320   4.736131
    31  H    1.097220   6.606256   5.193194   5.608048   4.836920
                   16         17         18         19         20
    16  H    0.000000
    17  H    4.303861   0.000000
    18  H    3.859518   1.758736   0.000000
    19  H    4.286239   4.308135   3.836428   0.000000
    20  H    3.844398   3.847723   2.707977   1.759967   0.000000
    21  H    6.048968   2.601377   3.070291   3.788105   3.778663
    22  H    6.041666   3.795480   3.768263   2.592111   3.074666
    23  H    5.689048   3.189592   2.572335   3.186483   2.582511
    24  H    3.558553   5.746047   5.060216   2.348821   2.885746
    25  H    3.034472   4.157624   2.614493   3.758463   2.199353
    26  H    2.821810   4.643403   3.795474   6.134152   4.945637
    27  H    3.504304   3.500515   2.369104   5.501651   4.113143
    28  H    3.889663   5.163038   3.795821   6.183486   4.651774
    29  H    2.453779   6.107004   5.071537   5.685056   4.746729
    30  H    2.849592   6.093528   4.890563   4.505851   3.646538
    31  H    3.661510   6.358866   4.930643   5.691365   4.381294
                   21         22         23         24         25
    21  H    0.000000
    22  H    1.772144   0.000000
    23  H    1.771394   1.771474   0.000000
    24  H    5.975191   4.937371   5.239621   0.000000
    25  H    5.155593   5.025107   4.000223   3.788977   0.000000
    26  H    6.777063   7.245371   6.214600   5.821118   3.067842
    27  H    5.421043   6.063563   4.789619   5.843258   2.482207
    28  H    6.832864   7.169637   5.870924   5.982899   2.502315
    29  H    7.731442   7.594695   6.892824   4.416599   3.065773
    30  H    7.145203   6.640080   6.092891   3.049608   2.512750
    31  H    7.623489   7.399770   6.444892   4.695867   2.476861
                   26         27         28         29         30
    26  H    0.000000
    27  H    1.772039   0.000000
    28  H    1.766838   1.764975   0.000000
    29  H    2.623261   3.802816   2.987319   0.000000
    30  H    3.821054   4.349378   3.675589   1.771362   0.000000
    31  H    3.149878   3.693819   2.403764   1.769612   1.778675
                   31
    31  H    0.000000
 Stoichiometry    C10H20O
 Framework group  C1[X(C10H20O)]
 Deg. of freedom    87
 Full point group                 C1      NOp   1
 Largest Abelian subgroup         C1      NOp   1
 Largest concise Abelian subgroup C1      NOp   1
                         Standard orientation:                         
 ---------------------------------------------------------------------
 Center     Atomic      Atomic             Coordinates (Angstroms)
 Number     Number       Type             X           Y           Z
 ---------------------------------------------------------------------
      1          6           0       -2.172968   -0.058109    0.072121
      2          6           0       -0.049733    1.273921    0.584666
      3          6           0       -0.180534   -1.097634    1.272034
      4          6           0        0.796647   -0.009533    0.761318
      5          6           0       -1.363829   -1.343106    0.322324
      6          6           0       -1.232301    1.074857   -0.375705
      7          6           0       -3.312235   -0.278591   -0.929323
      8          8           0        0.779721    2.360156    0.168114
      9          6           0        1.640341   -0.423429   -0.486998
     10          6           0        2.055819   -1.906249   -0.468735
     11          6           0        2.910364    0.437838   -0.623707
     12          1           0       -2.619749    0.241812    1.033907
     13          1           0       -0.465963    1.507358    1.581304
     14          1           0       -0.576021   -0.775527    2.246463
     15          1           0        0.355509   -2.032421    1.462195
     16          1           0        1.513638    0.190733    1.571191
     17          1           0       -2.020924   -2.119033    0.737481
     18          1           0       -0.999344   -1.730207   -0.640322
     19          1           0       -1.797710    2.017218   -0.446425
     20          1           0       -0.849240    0.869189   -1.384465
     21          1           0       -3.996120   -1.064507   -0.586806
     22          1           0       -3.899412    0.636333   -1.074950
     23          1           0       -2.920190   -0.581926   -1.908671
     24          1           0        0.205630    3.134449    0.058924
     25          1           0        1.033748   -0.267244   -1.389887
     26          1           0        2.613151   -2.151394    0.445084
     27          1           0        1.205078   -2.591829   -0.536482
     28          1           0        2.715091   -2.119154   -1.318516
     29          1           0        3.572327    0.281512    0.239054
     30          1           0        2.672326    1.500112   -0.678952
     31          1           0        3.470981    0.153486   -1.523009
 ---------------------------------------------------------------------
 Rotational constants (GHZ):      1.4856754      0.8118168      0.6344510
 Standard basis: 6-31+G(d,p) (6D, 7F)
 There are   309 symmetry adapted basis functions of A   symmetry.
 Integral buffers will be    131072 words long.
 Raffenetti 2 integral format.
 Two-electron integral symmetry is turned on.
   309 basis functions,   492 primitive gaussians,   309 cartesian basis functions
    44 alpha electrons       44 beta electrons
       nuclear repulsion energy       695.9176241597 Hartrees.
 NAtoms=   31 NActive=   31 NUniq=   31 SFac= 1.00D+00 NAtFMM=   60 NAOKFM=F Big=F
 ------------------------------------------------------------------------------
 Polarizable Continuum Model (PCM)
 =================================
 Model                : PCM.
 Atomic radii         : UFF (Universal Force Field).
 Polarization charges : Total charges.
 Charge compensation  : None.
 Solution method      : Matrix inversion.
 Cavity type          : Scaled VdW (van der Waals Surface) (Alpha=1.100).
 Cavity algorithm     : GePol (No added spheres)
                        Default sphere list used, NSphG=   31.
                        Lebedev-Laikov grids with approx.  5.0 points / Ang**2.
                        Smoothing algorithm: Karplus/York (Gamma=1.0000).
                        Polarization charges: spherical gaussians, with
                                              point-specific exponents (IZeta= 3).
                        Self-potential: point-specific (ISelfS= 7).
                        Self-field    : sphere-specific E.n sum rule (ISelfD= 2).
 Solvent              : Benzene, Eps=   2.270600 Eps(inf)=   2.253301
 ------------------------------------------------------------------------------
 One-electron integrals computed using PRISM.
 NBasis=   309 RedAO= T  NBF=   309
 NBsUse=   309 1.00D-06 NBFU=   309
 Harris functional with IExCor=  908 diagonalized for initial guess.
 ExpMin= 4.38D-02 ExpMax= 5.48D+03 ExpMxC= 8.25D+02 IAcc=2 IRadAn=         4 AccDes= 0.00D+00
 HarFok:  IExCor=  908 AccDes= 0.00D+00 IRadAn=         4 IDoV= 1
 ScaDFX=  1.000000  1.000000  1.000000  1.000000
 FoFCou: FMM=F IPFlag=           0 FMFlag=      100000 FMFlg1=           0
         NFxFlg=           0 DoJE=T BraDBF=F KetDBF=T FulRan=T
         Omega=  0.000000  0.000000  1.000000  0.000000  0.000000 ICntrl=     500 IOpCl=  0
         NMat0=    1 NMatS0=    1 NMatT0=    0 NMatD0=    1 NMtDS0=    0 NMtDT0=    0
         I1Cent=           4 NGrid=           0.
 Petite list used in FoFCou.
 Initial guess orbital symmetries:
       Occupied  (A) (A) (A) (A) (A) (A) (A) (A) (A) (A) (A) (A)
                 (A) (A) (A) (A) (A) (A) (A) (A) (A) (A) (A) (A)
                 (A) (A) (A) (A) (A) (A) (A) (A) (A) (A) (A) (A)
                 (A) (A) (A) (A) (A) (A) (A) (A)
       Virtual   (A) (A) (A) (A) (A) (A) (A) (A) (A) (A) (A) (A)
                 (A) (A) (A) (A) (A) (A) (A) (A) (A) (A) (A) (A)
                 (A) (A) (A) (A) (A) (A) (A) (A) (A) (A) (A) (A)
                 (A) (A) (A) (A) (A) (A) (A) (A) (A) (A) (A) (A)
                 (A) (A) (A) (A) (A) (A) (A) (A) (A) (A) (A) (A)
                 (A) (A) (A) (A) (A) (A) (A) (A) (A) (A) (A) (A)
                 (A) (A) (A) (A) (A) (A) (A) (A) (A) (A) (A) (A)
                 (A) (A) (A) (A) (A) (A) (A) (A) (A) (A) (A) (A)
                 (A) (A) (A) (A) (A) (A) (A) (A) (A) (A) (A) (A)
                 (A) (A) (A) (A) (A) (A) (A) (A) (A) (A) (A) (A)
                 (A) (A) (A) (A) (A) (A) (A) (A) (A) (A) (A) (A)
                 (A) (A) (A) (A) (A) (A) (A) (A) (A) (A) (A) (A)
                 (A) (A) (A) (A) (A) (A) (A) (A) (A) (A) (A) (A)
                 (A) (A) (A) (A) (A) (A) (A) (A) (A) (A) (A) (A)
                 (A) (A) (A) (A) (A) (A) (A) (A) (A) (A) (A) (A)
                 (A) (A) (A) (A) (A) (A) (A) (A) (A) (A) (A) (A)
                 (A) (A) (A) (A) (A) (A) (A) (A) (A) (A) (A) (A)
                 (A) (A) (A) (A) (A) (A) (A) (A) (A) (A) (A) (A)
                 (A) (A) (A) (A) (A) (A) (A) (A) (A) (A) (A) (A)
                 (A) (A) (A) (A) (A) (A) (A) (A) (A) (A) (A) (A)
                 (A) (A) (A) (A) (A) (A) (A) (A) (A) (A) (A) (A)
                 (A) (A) (A) (A) (A) (A) (A) (A) (A) (A) (A) (A)
                 (A)
 The electronic state of the initial guess is 1-A.
 Requested convergence on RMS density matrix=1.00D-08 within 128 cycles.
 Requested convergence on MAX density matrix=1.00D-06.
 Requested convergence on             energy=1.00D-06.
 No special actions if energy rises.
 Error on total polarization charges =  0.00938
 SCF Done:  E(RmPW1PW91) =  -468.279145862     A.U. after   12 cycles
             Convg  =    0.8198D-08             -V/T =  2.0099
 Range of M.O.s used for correlation:     1   309
 NBasis=   309 NAE=    44 NBE=    44 NFC=     0 NFV=     0
 NROrb=    309 NOA=    44 NOB=    44 NVA=   265 NVB=   265

 **** Warning!!: The largest alpha MO coefficient is  0.64129913D+02

 NEqPCM:  Using equilibrium solvation (IEInf=0, Eps=   2.2706, EpsInf=   2.2533)
          Differentiating once with respect to magnetic field using GIAOs.
          Electric field/nuclear overlap derivatives assumed to be zero.
 FoFCou: FMM=F IPFlag=           0 FMFlag=    10101102 FMFlg1=           0
         NFxFlg=    40000000 DoJE=F BraDBF=F KetDBF=T FulRan=T
         Omega=  0.000000  0.000000  1.000000  0.000000  0.000000 ICntrl=    6100 IOpCl=  0
         NMat0=    1 NMatS0=    1 NMatT0=    0 NMatD0=    1 NMtDS0=    0 NMtDT0=    0
         I1Cent=           7 NGrid=        1913.
 Symmetry not used in FoFCou.
          There are     3 degrees of freedom in the 1st order CPHF.  IDoFFX=0.
      3 vectors produced by pass  0 Test12= 3.89D-13 3.33D-08 XBig12= 2.98D+01 1.01D+00.
 AX will form     3 AO Fock derivatives at one time.
      3 vectors produced by pass  1 Test12= 3.89D-13 3.33D-08 XBig12= 6.28D-02 5.48D-02.
      3 vectors produced by pass  2 Test12= 3.89D-13 3.33D-08 XBig12= 1.45D-04 2.77D-03.
      3 vectors produced by pass  3 Test12= 3.89D-13 3.33D-08 XBig12= 5.65D-07 1.35D-04.
      3 vectors produced by pass  4 Test12= 3.89D-13 3.33D-08 XBig12= 1.43D-09 8.03D-06.
      3 vectors produced by pass  5 Test12= 3.89D-13 3.33D-08 XBig12= 2.84D-12 3.23D-07.
 Inverted reduced A of dimension    18 with in-core refinement.
 Calculating GIAO nuclear magnetic shielding tensors.
 SCF GIAO Magnetic shielding tensor (ppm):
      1  C    Isotropic =   161.6853   Anisotropy =    10.4871
   XX=   162.3194   YX=    -2.7123   ZX=     3.3082
   XY=    -3.7646   YY=   162.5277   ZY=    -3.2419
   XZ=     6.6862   YZ=    -0.7059   ZZ=   160.2089
   Eigenvalues:   156.1059   160.2733   168.6767
      2  C    Isotropic =   119.6423   Anisotropy =    47.8598
   XX=   121.4825   YX=    18.7097   ZX=    -7.6183
   XY=    17.2898   YY=   130.9595   ZY=   -10.6842
   XZ=   -11.8519   YZ=   -18.2207   ZZ=   106.4850
   Eigenvalues:    99.6385   107.7396   151.5489
      3  C    Isotropic =   165.8236   Anisotropy =    14.0156
   XX=   172.1137   YX=     6.3104   ZX=    -0.7360
   XY=     6.0632   YY=   162.3302   ZY=    -0.4388
   XZ=     2.3291   YZ=     1.0094   ZZ=   163.0268
   Eigenvalues:   159.3326   162.9708   175.1673
      4  C    Isotropic =   150.2090   Anisotropy =    18.9577
   XX=   154.4060   YX=    -5.1678   ZX=    -9.4285
   XY=     0.1419   YY=   142.8347   ZY=     4.6532
   XZ=    -4.2031   YZ=     8.7529   ZZ=   153.3865
   Eigenvalues:   139.5369   148.2427   162.8475
      5  C    Isotropic =   165.0666   Anisotropy =    22.1504
   XX=   166.8420   YX=    -8.3013   ZX=     8.6983
   XY=   -10.5969   YY=   168.2676   ZY=    -5.2650
   XZ=     3.1806   YZ=    -3.9745   ZZ=   160.0901
   Eigenvalues:   156.4833   158.8829   179.8335
      6  C    Isotropic =   153.9600   Anisotropy =    40.7710
   XX=   162.0742   YX=    23.4639   ZX=     9.6713
   XY=    17.6466   YY=   157.6059   ZY=    -6.1553
   XZ=     7.6526   YZ=     1.3517   ZZ=   142.2000
   Eigenvalues:   132.7578   147.9816   181.1407
      7  C    Isotropic =   173.2636   Anisotropy =    37.8609
   XX=   184.5497   YX=     2.8171   ZX=    16.1761
   XY=     4.7827   YY=   163.8590   ZY=     1.6731
   XZ=    21.7032   YZ=     1.8110   ZZ=   171.3822
   Eigenvalues:   157.8059   163.4807   198.5042
      8  O    Isotropic =   269.2405   Anisotropy =    61.2937
   XX=   275.5459   YX=   -20.1057   ZX=    19.0614
   XY=    -1.6044   YY=   303.2599   ZY=   -11.4665
   XZ=    10.6359   YZ=   -11.2567   ZZ=   228.9156
   Eigenvalues:   223.7755   273.8429   310.1029
      9  C    Isotropic =   167.8199   Anisotropy =    11.6918
   XX=   168.7440   YX=    -0.8081   ZX=    -9.1061
   XY=     0.4049   YY=   171.1154   ZY=     0.0001
   XZ=    -9.0641   YZ=    -0.4441   ZZ=   163.6003
   Eigenvalues:   156.7238   171.1214   175.6144
     10  C    Isotropic =   173.9500   Anisotropy =    28.4007
   XX=   167.7400   YX=    -9.0344   ZX=    -2.5127
   XY=    -1.3678   YY=   191.7987   ZY=    -0.3535
   XZ=    -4.3425   YZ=    -0.0113   ZZ=   162.3113
   Eigenvalues:   160.4499   168.5163   192.8838
     11  C    Isotropic =   170.7033   Anisotropy =    37.4963
   XX=   183.4597   YX=    19.1359   ZX=    -8.5865
   XY=    13.7273   YY=   169.4409   ZY=    -1.7726
   XZ=    -7.8986   YZ=     1.0920   ZZ=   159.2095
   Eigenvalues:   154.0082   162.4009   195.7009
     12  H    Isotropic =    30.0834   Anisotropy =     7.3946
   XX=    31.7916   YX=    -1.2013   ZX=    -2.9090
   XY=    -0.5710   YY=    26.8327   ZY=     1.6588
   XZ=    -2.9244   YZ=     1.6049   ZZ=    31.6259
   Eigenvalues:    26.3298    28.9072    35.0131
     13  H    Isotropic =    27.6168   Anisotropy =     4.4318
   XX=    25.8884   YX=     1.1673   ZX=    -2.6400
   XY=     1.2757   YY=    28.4629   ZY=     1.1791
   XZ=    -1.7874   YZ=     2.6857   ZZ=    28.4991
   Eigenvalues:    23.7269    28.5522    30.5714
     14  H    Isotropic =    30.3917   Anisotropy =     9.3606
   XX=    28.4340   YX=     1.1564   ZX=    -1.5724
   XY=     0.7995   YY=    26.5364   ZY=    -1.2533
   XZ=    -1.6810   YZ=    -0.4024   ZZ=    36.2047
   Eigenvalues:    26.1208    28.4222    36.6322
     15  H    Isotropic =    29.7137   Anisotropy =     7.7027
   XX=    29.9402   YX=    -2.2252   ZX=     0.0973
   XY=    -2.8322   YY=    31.4869   ZY=    -3.5076
   XZ=     0.1104   YZ=    -4.0503   ZZ=    27.7140
   Eigenvalues:    25.0235    29.2689    34.8489
     16  H    Isotropic =    29.9448   Anisotropy =     6.5059
   XX=    30.5920   YX=     1.7362   ZX=     1.6710
   XY=     1.1218   YY=    27.1763   ZY=     1.1829
   XZ=     2.9396   YZ=     1.5409   ZZ=    32.0660
   Eigenvalues:    26.5955    28.9568    34.2821
     17  H    Isotropic =    30.3290   Anisotropy =     9.6815
   XX=    31.2661   YX=     3.6131   ZX=    -0.1344
   XY=     4.1062   YY=    32.9439   ZY=    -3.2167
   XZ=    -0.0159   YZ=    -3.4311   ZZ=    26.7771
   Eigenvalues:    24.8944    29.3093    36.7834
     18  H    Isotropic =    30.6014   Anisotropy =     4.8378
   XX=    31.8637   YX=    -0.4649   ZX=     0.6447
   XY=    -1.0277   YY=    29.9418   ZY=     4.0979
   XZ=     0.1701   YZ=     3.5549   ZZ=    29.9985
   Eigenvalues:    26.0292    31.9483    33.8265
     19  H    Isotropic =    30.3246   Anisotropy =     7.2755
   XX=    30.8286   YX=    -1.4669   ZX=     1.2401
   XY=    -1.9391   YY=    34.2763   ZY=    -0.7529
   XZ=     1.1801   YZ=    -1.1799   ZZ=    25.8689
   Eigenvalues:    25.5508    30.2480    35.1749
     20  H    Isotropic =    30.1039   Anisotropy =     3.0825
   XX=    30.9593   YX=    -0.4264   ZX=     0.4185
   XY=     0.0385   YY=    27.4959   ZY=    -1.4113
   XZ=    -0.4568   YZ=    -0.9606   ZZ=    31.8565
   Eigenvalues:    27.1844    30.9684    32.1589
     21  H    Isotropic =    30.5393   Anisotropy =    10.7281
   XX=    34.8600   YX=     5.0105   ZX=     0.2891
   XY=     4.4333   YY=    29.8062   ZY=    -1.3171
   XZ=     1.0548   YZ=    -0.2628   ZZ=    26.9516
   Eigenvalues:    25.9403    27.9862    37.6914
     22  H    Isotropic =    30.6380   Anisotropy =    10.6155
   XX=    33.9675   YX=    -4.5244   ZX=     3.0653
   XY=    -3.5206   YY=    30.6348   ZY=    -0.7057
   XZ=     3.1822   YZ=    -1.8721   ZZ=    27.3117
   Eigenvalues:    26.0453    28.1536    37.7150
     23  H    Isotropic =    30.8796   Anisotropy =     7.8774
   XX=    29.8308   YX=     0.3672   ZX=     1.9252
   XY=     0.0841   YY=    27.6558   ZY=     2.3229
   XZ=     0.8802   YZ=     2.3282   ZZ=    35.1523
   Eigenvalues:    26.9823    29.5254    36.1312
     24  H    Isotropic =    30.9394   Anisotropy =    17.7266
   XX=    29.9120   YX=    -4.1535   ZX=    -0.0763
   XY=    -5.1042   YY=    40.7984   ZY=    -2.0877
   XZ=     0.7778   YZ=    -2.5588   ZZ=    22.1079
   Eigenvalues:    21.8169    28.2443    42.7572
     25  H    Isotropic =    29.5555   Anisotropy =     5.2520
   XX=    31.0932   YX=    -1.8759   ZX=     1.4245
   XY=    -1.6958   YY=    26.6941   ZY=    -0.2818
   XZ=     1.8827   YZ=    -0.5680   ZZ=    30.8792
   Eigenvalues:    26.0550    29.5547    33.0568
     26  H    Isotropic =    30.9625   Anisotropy =     8.7231
   XX=    31.2620   YX=    -3.2645   ZX=     2.4857
   XY=    -3.6659   YY=    31.0260   ZY=    -3.0625
   XZ=     2.2491   YZ=    -2.5550   ZZ=    30.5995
   Eigenvalues:    27.5552    28.5544    36.7779
     27  H    Isotropic =    30.4035   Anisotropy =     7.9276
   XX=    31.2929   YX=     1.5647   ZX=    -1.1302
   XY=     2.6057   YY=    34.4732   ZY=     2.1359
   XZ=    -1.1211   YZ=     1.9335   ZZ=    25.4445
   Eigenvalues:    24.6339    30.8881    35.6886
     28  H    Isotropic =    30.7726   Anisotropy =    10.2465
   XX=    30.2672   YX=    -2.3053   ZX=    -4.4832
   XY=    -3.0726   YY=    31.0187   ZY=     3.5054
   XZ=    -4.0806   YZ=     2.9063   ZZ=    31.0319
   Eigenvalues:    26.3384    28.3758    37.6036
     29  H    Isotropic =    31.0669   Anisotropy =     8.4711
   XX=    35.1363   YX=     0.8884   ZX=     3.5831
   XY=     1.4873   YY=    28.3713   ZY=     0.5317
   XZ=     2.5849   YZ=     0.2680   ZZ=    29.6931
   Eigenvalues:    28.1073    28.3791    36.7143
     30  H    Isotropic =    29.1647   Anisotropy =     7.6274
   XX=    30.1589   YX=     0.5622   ZX=    -2.9029
   XY=    -0.9599   YY=    34.2174   ZY=    -0.7470
   XZ=    -2.7840   YZ=    -0.4395   ZZ=    23.1179
   Eigenvalues:    22.0808    31.1638    34.2496
     31  H    Isotropic =    30.8041   Anisotropy =    10.7976
   XX=    32.7425   YX=     0.3137   ZX=    -6.1301
   XY=     1.4859   YY=    27.8093   ZY=    -0.2715
   XZ=    -5.1514   YZ=     0.2705   ZZ=    31.8607
   Eigenvalues:    26.3764    28.0335    38.0025
 End of Minotr Frequency-dependent properties file   721 does not exist.
 End of Minotr Frequency-dependent properties file   722 does not exist.

 **********************************************************************

            Population analysis using the SCF density.

 **********************************************************************

 Orbital symmetries:
       Occupied  (A) (A) (A) (A) (A) (A) (A) (A) (A) (A) (A) (A)
                 (A) (A) (A) (A) (A) (A) (A) (A) (A) (A) (A) (A)
                 (A) (A) (A) (A) (A) (A) (A) (A) (A) (A) (A) (A)
                 (A) (A) (A) (A) (A) (A) (A) (A)
       Virtual   (A) (A) (A) (A) (A) (A) (A) (A) (A) (A) (A) (A)
                 (A) (A) (A) (A) (A) (A) (A) (A) (A) (A) (A) (A)
                 (A) (A) (A) (A) (A) (A) (A) (A) (A) (A) (A) (A)
                 (A) (A) (A) (A) (A) (A) (A) (A) (A) (A) (A) (A)
                 (A) (A) (A) (A) (A) (A) (A) (A) (A) (A) (A) (A)
                 (A) (A) (A) (A) (A) (A) (A) (A) (A) (A) (A) (A)
                 (A) (A) (A) (A) (A) (A) (A) (A) (A) (A) (A) (A)
                 (A) (A) (A) (A) (A) (A) (A) (A) (A) (A) (A) (A)
                 (A) (A) (A) (A) (A) (A) (A) (A) (A) (A) (A) (A)
                 (A) (A) (A) (A) (A) (A) (A) (A) (A) (A) (A) (A)
                 (A) (A) (A) (A) (A) (A) (A) (A) (A) (A) (A) (A)
                 (A) (A) (A) (A) (A) (A) (A) (A) (A) (A) (A) (A)
                 (A) (A) (A) (A) (A) (A) (A) (A) (A) (A) (A) (A)
                 (A) (A) (A) (A) (A) (A) (A) (A) (A) (A) (A) (A)
                 (A) (A) (A) (A) (A) (A) (A) (A) (A) (A) (A) (A)
                 (A) (A) (A) (A) (A) (A) (A) (A) (A) (A) (A) (A)
                 (A) (A) (A) (A) (A) (A) (A) (A) (A) (A) (A) (A)
                 (A) (A) (A) (A) (A) (A) (A) (A) (A) (A) (A) (A)
                 (A) (A) (A) (A) (A) (A) (A) (A) (A) (A) (A) (A)
                 (A) (A) (A) (A) (A) (A) (A) (A) (A) (A) (A) (A)
                 (A) (A) (A) (A) (A) (A) (A) (A) (A) (A) (A) (A)
                 (A) (A) (A) (A) (A) (A) (A) (A) (A) (A) (A) (A)
                 (A)
 The electronic state is 1-A.
 Alpha  occ. eigenvalues --  -19.24551 -10.29598 -10.25307 -10.24772 -10.24708
 Alpha  occ. eigenvalues --  -10.24188 -10.24076 -10.24023 -10.23546 -10.22956
 Alpha  occ. eigenvalues --  -10.21871  -1.05169  -0.86203  -0.81749  -0.76721
 Alpha  occ. eigenvalues --   -0.75389  -0.69909  -0.69093  -0.63063  -0.61636
 Alpha  occ. eigenvalues --   -0.58935  -0.54249  -0.52363  -0.49915  -0.46656
 Alpha  occ. eigenvalues --   -0.46191  -0.45058  -0.44093  -0.42385  -0.40490
 Alpha  occ. eigenvalues --   -0.39783  -0.39363  -0.38531  -0.38495  -0.37758
 Alpha  occ. eigenvalues --   -0.37180  -0.35410  -0.34051  -0.33576  -0.32448
 Alpha  occ. eigenvalues --   -0.31540  -0.31127  -0.30089  -0.28045
 Alpha virt. eigenvalues --    0.00653   0.01563   0.01946   0.02373   0.03948
 Alpha virt. eigenvalues --    0.04505   0.04669   0.05018   0.05415   0.06940
 Alpha virt. eigenvalues --    0.07164   0.07572   0.08321   0.08367   0.09021
 Alpha virt. eigenvalues --    0.09834   0.10165   0.11209   0.11283   0.11807
 Alpha virt. eigenvalues --    0.12328   0.12780   0.13730   0.13861   0.14935
 Alpha virt. eigenvalues --    0.15501   0.15646   0.16086   0.16398   0.17121
 Alpha virt. eigenvalues --    0.17689   0.18448   0.19085   0.19536   0.20204
 Alpha virt. eigenvalues --    0.20577   0.20993   0.21147   0.21592   0.22625
 Alpha virt. eigenvalues --    0.23106   0.23156   0.23589   0.24637   0.24802
 Alpha virt. eigenvalues --    0.25260   0.25627   0.26204   0.27088   0.27393
 Alpha virt. eigenvalues --    0.28253   0.28645   0.28818   0.29236   0.29798
 Alpha virt. eigenvalues --    0.30689   0.31568   0.32138   0.32589   0.33249
 Alpha virt. eigenvalues --    0.34344   0.34823   0.35995   0.36694   0.36740
 Alpha virt. eigenvalues --    0.38162   0.39364   0.40071   0.41342   0.41915
 Alpha virt. eigenvalues --    0.43447   0.44634   0.47306   0.50552   0.53937
 Alpha virt. eigenvalues --    0.63083   0.63475   0.63926   0.65432   0.66740
 Alpha virt. eigenvalues --    0.68390   0.69400   0.70266   0.71390   0.72427
 Alpha virt. eigenvalues --    0.74041   0.74344   0.75203   0.75674   0.76693
 Alpha virt. eigenvalues --    0.77842   0.80080   0.81940   0.83400   0.84551
 Alpha virt. eigenvalues --    0.85474   0.87496   0.88776   0.90774   0.91515
 Alpha virt. eigenvalues --    0.94327   0.95481   0.98829   0.99997   1.00881
 Alpha virt. eigenvalues --    1.01553   1.02037   1.02560   1.04603   1.05151
 Alpha virt. eigenvalues --    1.05428   1.08477   1.09066   1.09617   1.11014
 Alpha virt. eigenvalues --    1.13068   1.13680   1.16188   1.16991   1.17870
 Alpha virt. eigenvalues --    1.18552   1.19125   1.19300   1.20568   1.21149
 Alpha virt. eigenvalues --    1.23379   1.25934   1.26933   1.28724   1.33301
 Alpha virt. eigenvalues --    1.35818   1.38846   1.41023   1.42058   1.45402
 Alpha virt. eigenvalues --    1.48154   1.50555   1.52544   1.56295   1.57519
 Alpha virt. eigenvalues --    1.58581   1.60187   1.62699   1.65858   1.68566
 Alpha virt. eigenvalues --    1.69382   1.71855   1.73991   1.77229   1.79783
 Alpha virt. eigenvalues --    1.83427   1.85344   1.85949   1.87947   1.89168
 Alpha virt. eigenvalues --    1.89901   1.90660   1.91068   1.93061   1.95281
 Alpha virt. eigenvalues --    1.96717   1.97416   1.99594   2.00737   2.02974
 Alpha virt. eigenvalues --    2.05320   2.05781   2.06152   2.07087   2.09063
 Alpha virt. eigenvalues --    2.10883   2.11253   2.12726   2.14081   2.15076
 Alpha virt. eigenvalues --    2.16687   2.17171   2.18652   2.19412   2.20411
 Alpha virt. eigenvalues --    2.21248   2.22363   2.23547   2.26705   2.30277
 Alpha virt. eigenvalues --    2.31656   2.33807   2.34389   2.37045   2.38484
 Alpha virt. eigenvalues --    2.39991   2.41009   2.43352   2.45554   2.45850
 Alpha virt. eigenvalues --    2.48191   2.49204   2.51189   2.54338   2.56340
 Alpha virt. eigenvalues --    2.58100   2.60156   2.61930   2.64581   2.66339
 Alpha virt. eigenvalues --    2.66989   2.68600   2.69576   2.70264   2.73352
 Alpha virt. eigenvalues --    2.75490   2.76404   2.77481   2.77717   2.78291
 Alpha virt. eigenvalues --    2.79864   2.81406   2.82855   2.84557   2.87103
 Alpha virt. eigenvalues --    2.88337   2.88974   2.90077   2.91234   2.91656
 Alpha virt. eigenvalues --    2.92841   2.93680   2.94492   2.97406   2.98131
 Alpha virt. eigenvalues --    3.00156   3.02409   3.07321   3.14659   3.29199
 Alpha virt. eigenvalues --    3.29919   3.32118   3.35351   3.38022   3.39142
 Alpha virt. eigenvalues --    3.40970   3.42639   3.47332   3.49229   3.49810
 Alpha virt. eigenvalues --    3.50355   3.54012   3.54684   3.55863   3.56845
 Alpha virt. eigenvalues --    3.59583   3.60330   3.60890   3.63987   4.36443
 Alpha virt. eigenvalues --    4.42809   4.50253   4.51858   4.56596   4.61846
 Alpha virt. eigenvalues --    4.62648   4.77248   4.83727   4.89261   4.91736
          Condensed to atoms (all electrons):
              1          2          3          4          5          6
     1  C    6.837209  -0.032448   0.019733   0.243423  -0.213942  -0.391986
     2  C   -0.032448   6.710399   0.451559  -0.817511   0.228734  -0.443921
     3  C    0.019733   0.451559   6.146219  -0.813878   0.173607  -0.096863
     4  C    0.243423  -0.817511  -0.813878   8.454326  -0.536775  -0.356894
     5  C   -0.213942   0.228734   0.173607  -0.536775   6.016089  -0.220247
     6  C   -0.391986  -0.443921  -0.096863  -0.356894  -0.220247   6.857899
     7  C   -0.441225  -0.184502  -0.125780   0.030453   0.092598   0.177275
     8  O    0.001427   0.197547   0.050350  -0.212315  -0.015245   0.006126
     9  C   -0.001285   0.053100   0.371719  -0.917387   0.061677  -0.086348
    10  C   -0.021355  -0.082608  -0.118104   0.333437  -0.018241   0.067776
    11  C    0.025127  -0.067843  -0.024810   0.051522  -0.039743   0.037775
    12  H    0.262884  -0.041280  -0.046427   0.028219   0.002719   0.006123
    13  H    0.034030   0.206223  -0.060247   0.058547  -0.006337   0.039873
    14  H    0.006587  -0.060934   0.345603   0.019813  -0.027169   0.010481
    15  H    0.024761   0.017113   0.379362  -0.011724  -0.037880  -0.017119
    16  H   -0.005875   0.061052   0.009825   0.187190   0.019721   0.029523
    17  H   -0.008491  -0.001344  -0.007800   0.045226   0.292984   0.034152
    18  H   -0.094227  -0.031895  -0.088393   0.043427   0.449594   0.013126
    19  H   -0.021395   0.033236  -0.001296   0.032919   0.037526   0.276785
    20  H   -0.078632  -0.167291  -0.039000   0.091986   0.006667   0.484952
    21  H   -0.095267  -0.004880   0.000306   0.002586   0.001184   0.022230
    22  H   -0.101483  -0.001713  -0.007619   0.003969   0.029453   0.002680
    23  H   -0.136273  -0.001988  -0.005841   0.004750   0.007142   0.007823
    24  H    0.023791   0.073177  -0.005265   0.062909  -0.001252  -0.115244
    25  H    0.007355   0.013515  -0.045846   0.017065   0.009246   0.007801
    26  H    0.001408   0.005226  -0.021433   0.026325   0.002848  -0.001015
    27  H   -0.004205  -0.009608   0.004030  -0.016659   0.000124   0.006558
    28  H   -0.000366  -0.002959  -0.009569   0.055772   0.002878   0.001438
    29  H    0.000444   0.014527  -0.004927  -0.020309   0.000671   0.002830
    30  H    0.000624   0.002882   0.007783  -0.001120  -0.002040  -0.006736
    31  H   -0.000555   0.004159  -0.003771   0.039527   0.001301   0.000815
              7          8          9         10         11         12
     1  C   -0.441225   0.001427  -0.001285  -0.021355   0.025127   0.262884
     2  C   -0.184502   0.197547   0.053100  -0.082608  -0.067843  -0.041280
     3  C   -0.125780   0.050350   0.371719  -0.118104  -0.024810  -0.046427
     4  C    0.030453  -0.212315  -0.917387   0.333437   0.051522   0.028219
     5  C    0.092598  -0.015245   0.061677  -0.018241  -0.039743   0.002719
     6  C    0.177275   0.006126  -0.086348   0.067776   0.037775   0.006123
     7  C    5.716067  -0.000805   0.003324   0.004199   0.003112   0.057087
     8  O   -0.000805   8.329977   0.040440   0.014206  -0.045835  -0.000422
     9  C    0.003324   0.040440   7.117225  -0.372163  -0.157259  -0.002246
    10  C    0.004199   0.014206  -0.372163   5.656553  -0.105051  -0.000033
    11  C    0.003112  -0.045835  -0.157259  -0.105051   5.630230   0.000128
    12  H    0.057087  -0.000422  -0.002246  -0.000033   0.000128   0.571427
    13  H    0.019854  -0.047521  -0.000779   0.003835  -0.001297   0.002794
    14  H    0.012578  -0.000442   0.002565   0.005637  -0.002342   0.003158
    15  H   -0.003598  -0.000589  -0.033722   0.012040  -0.002300  -0.000011
    16  H    0.000420  -0.001117   0.002079  -0.030564   0.009933  -0.000063
    17  H   -0.022280   0.000105  -0.008340   0.004537   0.000317  -0.005090
    18  H    0.022870  -0.000347  -0.001512  -0.005506   0.001513   0.005164
    19  H   -0.017925  -0.014126  -0.001954  -0.000582  -0.001532  -0.004803
    20  H    0.029735   0.002567  -0.029810   0.009518   0.000871   0.004812
    21  H    0.432561   0.000031   0.000355  -0.000204   0.000085  -0.003710
    22  H    0.434403  -0.000006  -0.000943   0.000217  -0.000140  -0.003643
    23  H    0.474248  -0.000090  -0.000224  -0.000052   0.000129   0.004773
    24  H   -0.001941   0.202739  -0.014828  -0.003027   0.005143  -0.000004
    25  H    0.002914  -0.001176   0.250779  -0.017355   0.024774  -0.000032
    26  H    0.000076  -0.000028  -0.122886   0.456291  -0.000336   0.000000
    27  H    0.000623   0.000093  -0.037154   0.419274  -0.004925   0.000001
    28  H    0.000057  -0.000029  -0.154622   0.466493  -0.000717   0.000000
    29  H    0.000036   0.000288  -0.097772  -0.006924   0.456436   0.000000
    30  H   -0.000116  -0.013857  -0.093534  -0.000189   0.470270   0.000000
    31  H    0.000136   0.000360  -0.124275   0.004536   0.431492   0.000000
             13         14         15         16         17         18
     1  C    0.034030   0.006587   0.024761  -0.005875  -0.008491  -0.094227
     2  C    0.206223  -0.060934   0.017113   0.061052  -0.001344  -0.031895
     3  C   -0.060247   0.345603   0.379362   0.009825  -0.007800  -0.088393
     4  C    0.058547   0.019813  -0.011724   0.187190   0.045226   0.043427
     5  C   -0.006337  -0.027169  -0.037880   0.019721   0.292984   0.449594
     6  C    0.039873   0.010481  -0.017119   0.029523   0.034152   0.013126
     7  C    0.019854   0.012578  -0.003598   0.000420  -0.022280   0.022870
     8  O   -0.047521  -0.000442  -0.000589  -0.001117   0.000105  -0.000347
     9  C   -0.000779   0.002565  -0.033722   0.002079  -0.008340  -0.001512
    10  C    0.003835   0.005637   0.012040  -0.030564   0.004537  -0.005506
    11  C   -0.001297  -0.002342  -0.002300   0.009933   0.000317   0.001513
    12  H    0.002794   0.003158  -0.000011  -0.000063  -0.005090   0.005164
    13  H    0.622039   0.004074   0.000016  -0.008409  -0.000038   0.000088
    14  H    0.004074   0.553608  -0.028149  -0.005935  -0.004107   0.004689
    15  H    0.000016  -0.028149   0.548851  -0.002933  -0.002813  -0.003543
    16  H   -0.008409  -0.005935  -0.002933   0.565943  -0.000111  -0.000098
    17  H   -0.000038  -0.004107  -0.002813  -0.000111   0.552729  -0.029445
    18  H    0.000088   0.004689  -0.003543  -0.000098  -0.029445   0.548903
    19  H   -0.006638  -0.000050   0.000010  -0.000131  -0.000137  -0.000065
    20  H    0.004916   0.000097  -0.000018  -0.000114  -0.000034   0.002385
    21  H    0.000005   0.000000  -0.000001   0.000000   0.002577  -0.000231
    22  H   -0.000004   0.000001   0.000002   0.000000  -0.000003   0.000001
    23  H   -0.000004   0.000001   0.000000   0.000000  -0.000146   0.003338
    24  H   -0.006166  -0.000007   0.000005  -0.000227  -0.000001   0.000000
    25  H   -0.000099  -0.000149   0.000100   0.004904   0.000012  -0.001791
    26  H   -0.000004  -0.000035  -0.000008   0.002338  -0.000003  -0.000007
    27  H    0.000000   0.000151  -0.001863  -0.000020   0.000015   0.001946
    28  H    0.000002  -0.000005   0.000165  -0.000108   0.000001  -0.000039
    29  H    0.000004  -0.000007   0.000024   0.003457   0.000000  -0.000003
    30  H   -0.000137  -0.000001  -0.000002  -0.000299   0.000000   0.000002
    31  H    0.000004   0.000002  -0.000006   0.000167   0.000000   0.000002
             19         20         21         22         23         24
     1  C   -0.021395  -0.078632  -0.095267  -0.101483  -0.136273   0.023791
     2  C    0.033236  -0.167291  -0.004880  -0.001713  -0.001988   0.073177
     3  C   -0.001296  -0.039000   0.000306  -0.007619  -0.005841  -0.005265
     4  C    0.032919   0.091986   0.002586   0.003969   0.004750   0.062909
     5  C    0.037526   0.006667   0.001184   0.029453   0.007142  -0.001252
     6  C    0.276785   0.484952   0.022230   0.002680   0.007823  -0.115244
     7  C   -0.017925   0.029735   0.432561   0.434403   0.474248  -0.001941
     8  O   -0.014126   0.002567   0.000031  -0.000006  -0.000090   0.202739
     9  C   -0.001954  -0.029810   0.000355  -0.000943  -0.000224  -0.014828
    10  C   -0.000582   0.009518  -0.000204   0.000217  -0.000052  -0.003027
    11  C   -0.001532   0.000871   0.000085  -0.000140   0.000129   0.005143
    12  H   -0.004803   0.004812  -0.003710  -0.003643   0.004773  -0.000004
    13  H   -0.006638   0.004916   0.000005  -0.000004  -0.000004  -0.006166
    14  H   -0.000050   0.000097   0.000000   0.000001   0.000001  -0.000007
    15  H    0.000010  -0.000018  -0.000001   0.000002   0.000000   0.000005
    16  H   -0.000131  -0.000114   0.000000   0.000000   0.000000  -0.000227
    17  H   -0.000137  -0.000034   0.002577  -0.000003  -0.000146  -0.000001
    18  H   -0.000065   0.002385  -0.000231   0.000001   0.003338   0.000000
    19  H    0.564772  -0.031802  -0.000007   0.002652  -0.000141   0.006499
    20  H   -0.031802   0.533800   0.000004  -0.000269   0.002945  -0.001104
    21  H   -0.000007   0.000004   0.531651  -0.025470  -0.027663   0.000000
    22  H    0.002652  -0.000269  -0.025470   0.533504  -0.028012   0.000000
    23  H   -0.000141   0.002945  -0.027663  -0.028012   0.531516   0.000001
    24  H    0.006499  -0.001104   0.000000   0.000000   0.000001   0.411563
    25  H   -0.000045   0.000306   0.000000   0.000000  -0.000032  -0.000069
    26  H    0.000000  -0.000001   0.000000   0.000000   0.000000   0.000000
    27  H   -0.000001   0.000010   0.000000   0.000000   0.000000   0.000000
    28  H    0.000000   0.000008   0.000000   0.000000   0.000000   0.000000
    29  H    0.000000  -0.000006   0.000000   0.000000   0.000000  -0.000009
    30  H   -0.000002   0.000064   0.000000   0.000000   0.000000   0.000559
    31  H    0.000000   0.000004   0.000000   0.000000   0.000000  -0.000012
             25         26         27         28         29         30
     1  C    0.007355   0.001408  -0.004205  -0.000366   0.000444   0.000624
     2  C    0.013515   0.005226  -0.009608  -0.002959   0.014527   0.002882
     3  C   -0.045846  -0.021433   0.004030  -0.009569  -0.004927   0.007783
     4  C    0.017065   0.026325  -0.016659   0.055772  -0.020309  -0.001120
     5  C    0.009246   0.002848   0.000124   0.002878   0.000671  -0.002040
     6  C    0.007801  -0.001015   0.006558   0.001438   0.002830  -0.006736
     7  C    0.002914   0.000076   0.000623   0.000057   0.000036  -0.000116
     8  O   -0.001176  -0.000028   0.000093  -0.000029   0.000288  -0.013857
     9  C    0.250779  -0.122886  -0.037154  -0.154622  -0.097772  -0.093534
    10  C   -0.017355   0.456291   0.419274   0.466493  -0.006924  -0.000189
    11  C    0.024774  -0.000336  -0.004925  -0.000717   0.456436   0.470270
    12  H   -0.000032   0.000000   0.000001   0.000000   0.000000   0.000000
    13  H   -0.000099  -0.000004   0.000000   0.000002   0.000004  -0.000137
    14  H   -0.000149  -0.000035   0.000151  -0.000005  -0.000007  -0.000001
    15  H    0.000100  -0.000008  -0.001863   0.000165   0.000024  -0.000002
    16  H    0.004904   0.002338  -0.000020  -0.000108   0.003457  -0.000299
    17  H    0.000012  -0.000003   0.000015   0.000001   0.000000   0.000000
    18  H   -0.001791  -0.000007   0.001946  -0.000039  -0.000003   0.000002
    19  H   -0.000045   0.000000  -0.000001   0.000000   0.000000  -0.000002
    20  H    0.000306  -0.000001   0.000010   0.000008  -0.000006   0.000064
    21  H    0.000000   0.000000   0.000000   0.000000   0.000000   0.000000
    22  H    0.000000   0.000000   0.000000   0.000000   0.000000   0.000000
    23  H   -0.000032   0.000000   0.000000   0.000000   0.000000   0.000000
    24  H   -0.000069   0.000000   0.000000   0.000000  -0.000009   0.000559
    25  H    0.581245   0.005056  -0.004256  -0.003069   0.005001  -0.003212
    26  H    0.005056   0.531584  -0.029087  -0.027442   0.003046  -0.000010
    27  H   -0.004256  -0.029087   0.541563  -0.026683   0.000011  -0.000143
    28  H   -0.003069  -0.027442  -0.026683   0.533491  -0.000291   0.000153
    29  H    0.005001   0.003046   0.000011  -0.000291   0.543056  -0.026541
    30  H   -0.003212  -0.000010  -0.000143   0.000153  -0.026541   0.492875
    31  H   -0.003837  -0.000021   0.000096   0.003130  -0.029629  -0.024696
             31
     1  C   -0.000555
     2  C    0.004159
     3  C   -0.003771
     4  C    0.039527
     5  C    0.001301
     6  C    0.000815
     7  C    0.000136
     8  O    0.000360
     9  C   -0.124275
    10  C    0.004536
    11  C    0.431492
    12  H    0.000000
    13  H    0.000004
    14  H    0.000002
    15  H   -0.000006
    16  H    0.000167
    17  H    0.000000
    18  H    0.000002
    19  H    0.000000
    20  H    0.000004
    21  H    0.000000
    22  H    0.000000
    23  H    0.000000
    24  H   -0.000012
    25  H   -0.003837
    26  H   -0.000021
    27  H    0.000096
    28  H    0.003130
    29  H   -0.029629
    30  H   -0.024696
    31  H    0.549619
 Mulliken atomic charges:
              1
     1  C    0.160208
     2  C   -0.119724
     3  C   -0.433226
     4  C   -0.128818
     5  C   -0.317890
     6  C   -0.357670
     7  C   -0.716452
     8  O   -0.492309
     9  C    0.355782
    10  C   -0.676589
    11  C   -0.694727
    12  H    0.158477
    13  H    0.141378
    14  H    0.160287
    15  H    0.163830
    16  H    0.159451
    17  H    0.157528
    18  H    0.160054
    19  H    0.148229
    20  H    0.172436
    21  H    0.163858
    22  H    0.162424
    23  H    0.163800
    24  H    0.362770
    25  H    0.150896
    26  H    0.168117
    27  H    0.160108
    28  H    0.162312
    29  H    0.156585
    30  H    0.197421
    31  H    0.151454
 Sum of Mulliken atomic charges =   0.00000
 Mulliken charges with hydrogens summed into heavy atoms:
              1
     1  C    0.318686
     2  C    0.021654
     3  C   -0.109109
     4  C    0.030633
     5  C   -0.000308
     6  C   -0.037005
     7  C   -0.226370
     8  O   -0.129539
     9  C    0.506678
    10  C   -0.186053
    11  C   -0.189267
 Sum of Mulliken charges with hydrogens summed into heavy atoms =   0.00000
 Electronic spatial extent (au):  <R**2>=           2059.5069
 Charge=              0.0000 electrons
 Dipole moment (field-independent basis, Debye):
    X=             -2.0818    Y=              0.0218    Z=              0.2890  Tot=              2.1018
 Quadrupole moment (field-independent basis, Debye-Ang):
   XX=            -74.7548   YY=            -69.5169   ZZ=            -71.7814
   XY=             -4.4601   XZ=             -0.5253   YZ=             -0.2058
 Traceless Quadrupole moment (field-independent basis, Debye-Ang):
   XX=             -2.7371   YY=              2.5008   ZZ=              0.2363
   XY=             -4.4601   XZ=             -0.5253   YZ=             -0.2058
 Octapole moment (field-independent basis, Debye-Ang**2):
  XXX=             -5.4639  YYY=             30.9349  ZZZ=              1.5246  XYY=            -12.7948
  XXY=             -1.5334  XXZ=              3.1228  XZZ=              1.6865  YZZ=              2.0169
  YYZ=              0.0729  XYZ=             -0.5606
 Hexadecapole moment (field-independent basis, Debye-Ang**3):
 XXXX=          -1731.7344 YYYY=           -711.3887 ZZZZ=           -351.3817 XXXY=             -2.0475
 XXXZ=             -4.7169 YYYX=            -13.5979 YYYZ=             -6.9578 ZZZX=             -3.9036
 ZZZY=              5.5509 XXYY=           -426.8220 XXZZ=           -341.8646 YYZZ=           -195.5796
 XXYZ=             -3.1336 YYXZ=             -3.8094 ZZXY=             -1.5537
 N-N= 6.959176241597D+02 E-N=-2.477263458895D+03  KE= 4.636960856567D+02
 1\1\GINC-COMPUTE-10-2\SP\RmPW1PW91\6-31+G(d,p)\C10H20O1\ASAROTTI.IQUIR
 \19-Sep-2024\0\\# mPW1PW91/6-31+G** nmr scrf=(pcm,solvent=benzene)\\co
 mment\\0,1\C,0,-2.172968,-0.058109,0.072121\C,0,-0.049733,1.273921,0.5
 84666\C,0,-0.180534,-1.097634,1.272034\C,0,0.796647,-0.009533,0.761318
 \C,0,-1.363829,-1.343106,0.322324\C,0,-1.232301,1.074857,-0.375705\C,0
 ,-3.312235,-0.278591,-0.929323\O,0,0.779721,2.360156,0.168114\C,0,1.64
 0341,-0.423429,-0.486998\C,0,2.055819,-1.906249,-0.468735\C,0,2.910364
 ,0.437837,-0.623707\H,0,-2.619749,0.241812,1.033907\H,0,-0.465963,1.50
 7358,1.581304\H,0,-0.576021,-0.775527,2.246463\H,0,0.355509,-2.032421,
 1.462195\H,0,1.513638,0.190733,1.571191\H,0,-2.020924,-2.119033,0.7374
 81\H,0,-0.999344,-1.730207,-0.640322\H,0,-1.79771,2.017218,-0.446425\H
 ,0,-0.84924,0.869189,-1.384465\H,0,-3.99612,-1.064507,-0.586806\H,0,-3
 .899412,0.636333,-1.07495\H,0,-2.92019,-0.581926,-1.908671\H,0,0.20563
 1,3.134449,0.058924\H,0,1.033748,-0.267244,-1.389887\H,0,2.613151,-2.1
 51395,0.445084\H,0,1.205078,-2.591829,-0.536482\H,0,2.715091,-2.119155
 ,-1.318516\H,0,3.572327,0.281511,0.239054\H,0,2.672326,1.500111,-0.678
 952\H,0,3.470981,0.153485,-1.523009\\Version=AM64L-G09RevC.01\State=1-
 A\HF=-468.2791459\RMSD=8.198e-09\Dipole=-0.819025,0.0085905,0.1137157\
 Quadrupole=-2.0349683,1.8592824,0.1756858,-3.3159551,-0.3905177,-0.152
 9864\PG=C01 [X(C10H20O1)]\\@


 YOU ARE IN A MAZE OF TWISTY LITTLE PASSAGES.
 Job cpu time:  0 days  0 hours  9 minutes 38.9 seconds.
 File lengths (MBytes):  RWF=    120 Int=      0 D2E=      0 Chk=      7 Scr=      1
 Normal termination of Gaussian 09 at Thu Sep 19 10:07:36 2024.
